% Model:              adattamento a studio.mph
% Version:            COMSOL 5.6.0.341
% Date:               Jun 6 2021, 15:41
% Dimension:          1
% Nodes:              381
% Expressions:        1
% Description:        Grafico tabella
%                         
100                       0.005270808746129096
105                       0.005523514220597973
110                       0.0058081953739983665
115                       0.006130019188671677
120                       0.00649535417182742
125                       0.006912132258790062
130                       0.007390350024036255
135                       0.00794277591506139
140                       0.008585969417629164
145                       0.009341785207325388
150                       0.010239654498136123
155                       0.011320155939557004
160                       0.012640814518526784
165                       0.014285937937764663
170                       0.016384199764998036
175                       0.01914216142230264
180                       0.02291358693681999
185                       0.028358784578052607
190                       0.036868064156411424
195                       0.05195492624946301
200                       0.08580789123637877
205                       0.22909758171008904
210                       0.3800124658597697
215                       0.10794504068829328
220                       0.06428468969573023
225                       0.046539419345310785
230                       0.03697395812773913
235                       0.031034173367169363
240                       0.027020946455217347
245                       0.024156471655786303
250                       0.02203474106241489
255                       0.020423476882239423
260                       0.0191805501382407
265                       0.018214477552618253
270                       0.017464080610236236
275                       0.016887287359756784
280                       0.01645463220556806
285                       0.016145322208453862
290                       0.015944781293503896
295                       0.015843087338788395
300                       0.015833975064368157
305                       0.015914217091108743
310                       0.01608327521001979
315                       0.01634316260472743
320                       0.016698490621473706
325                       0.017156699431433338
330                       0.017728496594848882
335                       0.018428556554898008
340                       0.019276574136061386
345                       0.02029882643151047
350                       0.021530497821614467
355                       0.023019195523349884
360                       0.024830393680341928
365                       0.027056129139822003
370                       0.029829432422048878
375                       0.0333494197234623
380                       0.037927490990905394
385                       0.0440786829310168
390                       0.052719625521643464
395                       0.0656531178800652
400                       0.0869767227575444
405                       0.12842155180733608
410                       0.2423394676139059
415                       1.4210787874873632
420                       0.32190253991663415
425                       0.1531429664622382
430                       0.10143245833994534
435                       0.07653716540659675
440                       0.06198318172946476
445                       0.05249864359773799
450                       0.04587817297150712
455                       0.0410372906991317
460                       0.03738122790546469
465                       0.03455711888193859
470                       0.032342913141547525
475                       0.03059243891204136
480                       0.02920609863515575
485                       0.028114272475879547
490                       0.02726745797199523
495                       0.026630185839014685
500                       0.026177158447704626
505                       0.025890756993426887
510                       0.025759430918652487
515                       0.02577668645307499
520                       0.02594050989790674
525                       0.026253135670386268
530                       0.0267211208530578
535                       0.027355730154581585
540                       0.028173677380985557
545                       0.029198321156666908
550                       0.03046148613220621
555                       0.032006196209765664
560                       0.033890799178458914
565                       0.03619530125846572
570                       0.039031354677501066
575                       0.04255854992338929
580                       0.047012136250712926
585                       0.05275269114361635
590                       0.06036100763043673
595                       0.07083465774537748
600                       0.08604053072637882
605                       0.10991801103468797
610                       0.15242510031401874
615                       0.24775429269377164
620                       0.6181639758968568
625                       0.7388706990840306
630                       0.272420019074908
635                       0.16478427715780905
640                       0.11873348427846724
645                       0.09340088634975288
650                       0.07748195285584156
655                       0.0666273603209082
660                       0.05881208055157958
665                       0.05296742108341508
670                       0.04847706013154977
675                       0.04496135507299217
680                       0.04217437802553565
685                       0.03995049446806171
690                       0.03817476945851252
695                       0.03676569021708271
700                       0.03566464513421988
705                       0.03482930216504554
710                       0.03422934205906693
715                       0.03384367671872584
720                       0.033658648234772805
725                       0.03366691203369038
730                       0.03386683289744963
735                       0.03426230441409275
740                       0.03486296276801705
745                       0.03568481901948165
750                       0.036751391958792304
755                       0.038095499470516714
760                       0.03976197930339247
765                       0.041811792818788295
770                       0.04432827816916592
775                       0.04742688160227751
780                       0.05127075499686163
785                       0.05609670983954579
790                       0.06226044412589634
795                       0.07031995817131768
800                       0.08120067987790681
805                       0.09655315859487258
810                       0.11962548642032396
815                       0.15776865825634503
820                       0.23156729576713153
825                       0.42224287562894225
830                       0.922733000666642
835                       0.4354720759758112
840                       0.23804959895111935
845                       0.16252431853312863
850                       0.1237439712728932
855                       0.10038449676971463
860                       0.08489170176311583
865                       0.07394480391895424
870                       0.06586235637281866
875                       0.05970417888921535
880                       0.05490466998162746
885                       0.05110405541561079
890                       0.04806334972255718
895                       0.0456183440169655
900                       0.04365325020681842
905                       0.042084891538167565
910                       0.040852860555511426
915                       0.039913213478033734
920                       0.03923435091401024
925                       0.038794307932575864
930                       0.03857899535055666
935                       0.03858112045682479
940                       0.03879963106136754
945                       0.03923960504253552
950                       0.039912568143490326
955                       0.04083727925082765
960                       0.04204108697331117
965                       0.04356204876802203
970                       0.04545213651888143
975                       0.0477820691519311
980                       0.050648686162362816
985                       0.054186449483078776
990                       0.05858593449629157
995                       0.06412470486806875
1000                      0.07122131351252257
1005                      0.080535267913786
1010                      0.09316553525377469
1015                      0.11108111941728016
1020                      0.13816742162828746
1025                      0.18317664287691093
1030                      0.2697417881435291
1035                      0.47145245228822885
1040                      0.672256591833764
1045                      0.3813688933094223
1050                      0.23358914485747576
1055                      0.1660679932133354
1060                      0.1288552744067161
1065                      0.10561211872976378
1070                      0.08985690290112686
1075                      0.0785614757118434
1080                      0.07013356969039437
1085                      0.06365977415710002
1090                      0.058580336470426604
1095                      0.05453418261559192
1100                      0.051278801562025106
1105                      0.048646046147159935
1110                      0.046516425086701445
1115                      0.04480348911117912
1120                      0.04344400877789975
1125                      0.04239162374798518
1130                      0.04161265803739157
1135                      0.04108334134399472
1140                      0.040787983577879765
1145                      0.040717830743966024
1150                      0.0408704432042658
1155                      0.041249513580246984
1160                      0.041865099768474995
1165                      0.0427343014494636
1170                      0.04388246707863575
1175                      0.0453450953914662
1180                      0.0471707095532856
1185                      0.04942516459512505
1190                      0.05219815691698537
1195                      0.055613248765155596
1200                      0.059843724248108646
1205                      0.06513853305991028
1210                      0.07186652759173286
1215                      0.08059573882740322
1220                      0.09224423383380159
1225                      0.1083888571917874
1230                      0.13195514640456565
1235                      0.16892358481042502
1240                      0.23292115909007688
1245                      0.35483394027802706
1250                      0.51370413540972
1255                      0.4064852540203918
1260                      0.26107615074724266
1265                      0.18426834899253924
1270                      0.1413311914547567
1275                      0.1146640827377085
1280                      0.09673371581976459
1285                      0.08397062809050719
1290                      0.07450087020159617
1295                      0.06725578408875303
1300                      0.061584891608385935
1305                      0.05707125492250326
1310                      0.05343635930586497
1315                      0.05048790022907527
1320                      0.04808957447054464
1325                      0.04614282148827843
1330                      0.04457538134723793
1335                      0.04333391154477195
1340                      0.042379116514133425
1345                      0.041682491481681315
1350                      0.04122414427895813
1355                      0.04099136965098771
1360                      0.04097777942300663
1365                      0.04118287549252705
1370                      0.041612012027837014
1375                      0.042276741685173376
1380                      0.04319558794422604
1385                      0.04439534127324375
1390                      0.045913052685556725
1395                      0.04779901253730613
1400                      0.050121186207180306
1405                      0.05297188823614684
1410                      0.05647802097795736
1415                      0.06081719954421269
1420                      0.06624398515231629
1425                      0.07313424891695389
1430                      0.08206368585113154
1435                      0.09395427768060455
1440                      0.1103641569694064
1445                      0.13409674547449357
1450                      0.17052405322127318
1455                      0.23004117070659574
1460                      0.32489409509429024
1465                      0.3973608121455195
1470                      0.32347874196402004
1475                      0.22886974120740106
1480                      0.1696391085935363
1485                      0.13337146393514254
1490                      0.10972554696432317
1495                      0.09336374836107737
1500                      0.08149947729427297
1505                      0.07258297741648681
1510                      0.06569664493075933
1515                      0.06026716665093701
1520                      0.0559199873789794
1525                      0.05240125048939076
1530                      0.04953366641311198
1535                      0.04719040118642039
1540                      0.04527901489887122
1545                      0.043731252947786556
1550                      0.042496380589065394
1555                      0.041536740518913456
1560                      0.040824754040572696
1565                      0.04034089389598272
1570                      0.040072338630637944
1575                      0.040012130520191654
1580                      0.0401587322112325
1585                      0.040515928935685945
1590                      0.04109306450070602
1595                      0.04190563827464159
1600                      0.04297633444430171
1605                      0.044336612634314036
1610                      0.046029073205917814
1615                      0.04811094187190152
1620                      0.050659232897135566
1625                      0.05377851448956818
1630                      0.05761284032540487
1635                      0.06236457616102922
1640                      0.06832504567645065
1645                      0.0759261996196298
1650                      0.08583109240963734
1655                      0.0990982399958584
1660                      0.11748716508569215
1665                      0.14400572631158745
1670                      0.18358360295730813
1675                      0.2411409788763449
1680                      0.30046687230032043
1685                      0.2954678136590516
1690                      0.23349247150651564
1695                      0.17784592673619465
1700                      0.1399988387863314
1705                      0.11457642541961184
1710                      0.09686647435773874
1715                      0.08403342711152918
1720                      0.07441658499203142
1725                      0.06701268480705484
1730                      0.061190422388244015
1735                      0.05653678842112285
1740                      0.05277217327298775
1745                      0.049701680895636764
1750                      0.04718613297080553
1755                      0.045124187051728167
1760                      0.04344096277330525
1765                      0.042080613533870846
1770                      0.04100136943275982
1775                      0.040172177544695035
1780                      0.039570408179689126
1785                      0.039180297992695116
1790                      0.03899192453928786
1795                      0.03900058591758324
1800                      0.03920651273707065
1805                      0.03961487942983031
1810                      0.04023611560246507
1815                      0.04108655179416493
1820                      0.04218947368273096
1825                      0.04357671200247171
1830                      0.045290973323909835
1835                      0.04738923742957696
1840                      0.0499477411475557
1845                      0.05306939069344078
1850                      0.05689499330437942
1855                      0.06162065401906462
1860                      0.0675253696708876
1865                      0.0750158189391136
1870                      0.08470029818710058
1875                      0.09751024574846082
1880                      0.1148855854797449
1885                      0.1389597729991291
1890                      0.17214252746136596
1895                      0.21305743396006133
1900                      0.2432751732554219
1905                      0.23266472445169717
1910                      0.19335717663500832
1915                      0.15509581602371303
1920                      0.12632352010349618
1925                      0.10563220274166729
1930                      0.09057028720699739
1935                      0.0793331738317376
1940                      0.07074092895885033
1945                      0.06402951104353338
1950                      0.05869493737263313
1955                      0.054396190594129645
1960                      0.050896549296953704
1965                      0.04802782661524916
1970                      0.04566811087865295
1975                      0.04372757357102279
1980                      0.04213920611593862
1985                      0.04085264475314291
1990                      0.0398299812844821
1995                      0.03904288549461205
2000                      0.0384706189585926
