% Model:              adattamento a studio.mph
% Version:            COMSOL 5.6.0.341
% Date:               Jun 6 2021, 15:10
% Dimension:          1
% Nodes:              381
% Expressions:        1
% Description:        Grafico tabella
%                         
100                       0.005595608703478822
105                       0.005861408994499523
110                       0.0061604895184368845
115                       0.006498140166311075
120                       0.006880859562615265
125                       0.007316711932393802
130                       0.007815818437240175
135                       0.00839104591439872
140                       0.009058992024386429
145                       0.009841426933862432
150                       0.010767458776530044
155                       0.011876885211634417
160                       0.013225564750042933
165                       0.014894385871553508
170                       0.01700499789740425
175                       0.019749104228864636
180                       0.02344724647216478
185                       0.02867869711380546
190                       0.036608143361505065
195                       0.049974445563818866
200                       0.07710487881140124
205                       0.16097819740815603
210                       2.844472680296754
215                       0.15601930819461848
220                       0.08175122493901621
225                       0.05643424372937995
230                       0.043743045342562153
235                       0.03617096954703481
240                       0.031182151211964416
245                       0.027681999353802902
250                       0.02512111900293626
255                       0.023193900128431956
260                       0.021717228133394523
265                       0.02057512520351922
270                       0.019690998508447674
275                       0.019012681831559526
280                       0.01850389859083601
285                       0.01813916506472903
290                       0.017900641588583614
295                       0.017776142822962547
300                       0.017757871680586724
305                       0.017841629300861972
310                       0.018026358874271887
315                       0.018313944213362843
320                       0.018709225310087518
325                       0.019220224244463385
330                       0.019858603245332396
335                       0.020640408790890914
340                       0.021587198667755093
345                       0.02272771363206798
350                       0.02410036003121882
355                       0.02575694822077874
360                       0.027768449822416764
365                       0.030234130586561738
370                       0.03329658019931468
375                       0.03716758030679506
380                       0.04217513672697778
385                       0.04885502330082652
390                       0.05814512461465149
395                       0.07184812021555896
400                       0.09392339380816297
405                       0.13507565167968769
410                       0.23761889220466087
415                       0.8850933926872239
420                       0.4810617981076075
425                       0.19877581005649997
430                       0.12659136362354817
435                       0.0938609461342683
440                       0.07530304810601113
445                       0.06343566175889681
450                       0.055260218552847816
455                       0.04934225909451872
460                       0.04491017103569012
465                       0.04151277160871736
470                       0.038869383251552
475                       0.03679700517631024
480                       0.03517201031836936
485                       0.033908703266002475
490                       0.032946708089503035
495                       0.03224325819514033
500                       0.031768350167109834
505                       0.03150165291262714
510                       0.031430547477802606
515                       0.03154893921615365
520                       0.03185663968912142
525                       0.03235921451623554
530                       0.03306826465729797
535                       0.03400217062617013
540                       0.03518739653832608
545                       0.03666053985430883
550                       0.03847144677941395
555                       0.04068793307609241
560                       0.04340303195772473
565                       0.04674638802263634
570                       0.050902754139898844
575                       0.056143260356832855
580                       0.06288098396258682
585                       0.07177601809039531
590                       0.08395026686044182
595                       0.10147339512856444
600                       0.12862392505388093
605                       0.17587827169079648
610                       0.277229666138892
615                       0.6286850388760074
620                       1.1824453813043276
625                       0.37257981590928385
630                       0.21590259712403972
635                       0.1529315731131891
640                       0.11929396158452986
645                       0.09852153819173873
650                       0.08452630892680249
655                       0.07454264115701191
660                       0.06713544958002537
665                       0.061487410394280656
670                       0.05710004279513063
675                       0.05365316582670651
680                       0.050932843968059645
685                       0.0487918623639015
690                       0.04712685195110123
695                       0.04586447958757789
700                       0.044952843240012974
705                       0.0443560050239311
710                       0.044050510940218786
715                       0.04402324101914973
720                       0.044270217262560946
725                       0.04479617250574529
730                       0.04561480600510184
735                       0.04674975442045289
740                       0.04823641531486564
745                       0.0501249014574013
750                       0.05248461717700946
755                       0.05541130045595671
760                       0.059037995812162306
765                       0.06355257799175608
770                       0.06922670978844475
775                       0.07646581967713925
780                       0.08590014532494293
785                       0.09856215433322274
790                       0.11626323245347878
795                       0.14248848989845883
800                       0.18487544761684183
805                       0.26380050494048285
810                       0.45451732294247515
815                       1.1249078457949893
820                       0.6731900648987245
825                       0.334305171282141
830                       0.21954382915603574
835                       0.1639093225043784
840                       0.13144106823814664
845                       0.11033464590578357
850                       0.09562963833714984
855                       0.08488803845800855
860                       0.07677523895163296
865                       0.070501101023592
870                       0.06556936626743855
875                       0.06165387228452482
880                       0.05853262888738149
885                       0.05605054823080193
890                       0.05409734198832598
895                       0.05259390881198796
900                       0.05148371354099904
905                       0.0507272390715565
910                       0.050298421440171215
915                       0.05018243819339992
920                       0.05037449011219537
925                       0.05087938829289968
930                       0.05171188275914671
935                       0.05289777706835737
940                       0.05447599175674107
945                       0.05650189739822109
950                       0.059052479610557644
955                       0.0622343010945351
960                       0.06619593916960088
965                       0.0711479079882222
970                       0.07739569031240398
975                       0.08539695293809439
980                       0.095866166713459
985                       0.10997921416452468
990                       0.1298089510708979
995                       0.1593596320833302
1000                      0.20740716431307765
1005                      0.29696548858867805
1010                      0.5036169608021681
1015                      0.8992169299632028
1020                      0.5511886644035181
1025                      0.3151873538282098
1030                      0.21612252111852248
1035                      0.1642594431040084
1040                      0.13283933786862304
1045                      0.11195894488554767
1050                      0.09719386511503654
1055                      0.08628769414142297
1060                      0.07797433075254608
1065                      0.07149072975476359
1070                      0.06635105850236149
1075                      0.06223241692235265
1080                      0.05891285019721756
1085                      0.0562357888362594
1090                      0.054088698710195636
1095                      0.05238978298156324
1100                      0.05107946053848882
1105                      0.050114799918606893
1110                      0.04946586033695922
1115                      0.04911332210595428
1120                      0.04904704116229421
1125                      0.049265319920389766
1130                      0.04977479448091213
1135                      0.0505909234233289
1140                      0.05173914536394167
1145                      0.05325686943708429
1150                      0.05519659815766395
1155                      0.057630692575303726
1160                      0.060658640913575125
1165                      0.06441830986076189
1170                      0.06910379720381599
1175                      0.07499470995380078
1180                      0.08250619552853361
1185                      0.09227883228332777
1190                      0.10535029977757082
1195                      0.12350866369020887
1200                      0.15008926980813722
1205                      0.19198130393227728
1210                      0.26526096175945224
1215                      0.40921906218393045
1220                      0.6145736004833953
1225                      0.4785016454723785
1230                      0.29952696621151975
1235                      0.20903557587512323
1240                      0.15936325219810532
1245                      0.12877953763571415
1250                      0.10831427612812752
1255                      0.09378974713127872
1260                      0.08303384419173569
1265                      0.07481539962549554
1270                      0.06838809684755107
1275                      0.06327497129014631
1280                      0.059158104970899725
1285                      0.0558183545696886
1290                      0.05310060029521125
1295                      0.05089279859972683
1300                      0.049112884246754314
1305                      0.047700335082921666
1310                      0.046610618220810154
1315                      0.045811485554141065
1320                      0.045280504094749985
1325                      0.045003449717655415
1330                      0.04497334149788068
1335                      0.04518999074927748
1340                      0.04566000863544173
1345                      0.04639727444361507
1350                      0.04742392534819905
1355                      0.04877199995300865
1360                      0.05048596825458992
1365                      0.05262653554105149
1370                      0.05527636213008427
1375                      0.05854877884637483
1380                      0.06260136469443821
1385                      0.06765772713781151
1390                      0.07404371731702016
1395                      0.08225028212009679
1400                      0.09304818811879226
1405                      0.10771005620994986
1410                      0.1284691005038131
1415                      0.1595278606780453
1420                      0.2092917672653765
1425                      0.29338936695617185
1430                      0.40932349628170767
1435                      0.40571330321768034
1440                      0.2885861853876927
1445                      0.20536866285340033
1450                      0.156167102998992
1455                      0.12540527068835183
1460                      0.10480307449008801
1465                      0.09022157607796324
1470                      0.0794583168722827
1475                      0.0712562225814944
1480                      0.06485275392756486
1485                      0.059761425248072764
1490                      0.05565876296380804
1495                      0.05232229155479122
1500                      0.04959475178053001
1505                      0.0473625471735107
1510                      0.045542279881998014
1515                      0.04407208101226218
1520                      0.04290589123661719
1525                      0.04200962165640989
1530                      0.04135855555990365
1535                      0.04093560083203402
1540                      0.04073015282325511
1545                      0.04073742230066574
1550                      0.04095814714323963
1555                      0.04139865430599602
1560                      0.04207128004031093
1565                      0.04299519936082991
1570                      0.04419776865522275
1575                      0.0457165593282196
1580                      0.04760237299503858
1585                      0.04992371005873617
1590                      0.052773467987860576
1595                      0.05627917606419683
1600                      0.06061903119218572
1605                      0.06604779340093252
1610                      0.07294008783888188
1615                      0.08186568635071045
1620                      0.09372584854054102
1625                      0.11000931514106149
1630                      0.13327644293712007
1635                      0.1679624131731728
1640                      0.22046791041307334
1645                      0.2880352593038639
1650                      0.3141862702333824
1655                      0.258956167036875
1660                      0.19474283623207908
1665                      0.1501996547414029
1670                      0.12084181650819388
1675                      0.10081396207162902
1680                      0.08654829647254053
1685                      0.07599889879733947
1690                      0.06795858023275282
1695                      0.06168333581787489
1700                      0.05669480584048662
1705                      0.05267372879083167
1710                      0.04940013732237588
1715                      0.046718394278033364
1720                      0.044515966702856874
1725                      0.042710101944213666
1730                      0.041239219071522316
1735                      0.04005721155933605
1740                      0.03912960614713036
1745                      0.03843094322290456
1750                      0.03794298837790593
1755                      0.03765353179825645
1760                      0.03755562419143071
1765                      0.0376471585810649
1770                      0.037930750373407596
1775                      0.03841390236691316
1780                      0.039109473198087503
1785                      0.04003650277473937
1790                      0.04122149303434575
1795                      0.04270030592967992
1800                      0.04452093714472914
1805                      0.046747577738752336
1810                      0.04946662899969703
1815                      0.05279576475560109
1820                      0.0568978813546597
1825                      0.06200310079685855
1830                      0.06844437532552448
1835                      0.07671647193979701
1840                      0.08757498861501584
1845                      0.10219906294239041
1850                      0.12242111859947324
1855                      0.1508015576905224
1860                      0.18897918196618813
1865                      0.22831313120705476
1870                      0.2373320943274879
1875                      0.20501864397718872
1880                      0.1639013524440218
1885                      0.13149578294994488
1890                      0.10830897615783966
1895                      0.09168833122856093
1900                      0.07947714322693997
1905                      0.07026082071576607
1910                      0.06313684671165128
1915                      0.05752030244065365
1920                      0.05302190629314067
1925                      0.049375321947165
1930                      0.04639362696793444
1935                      0.0439426844801289
1940                      0.04192443194173378
1945                      0.04026612332436369
1950                      0.03891324046772761
1955                      0.03782472773754713
1960                      0.03696973830305899
1965                      0.03632539181729973
1970                      0.03587522977099924
1975                      0.035608169769269636
1980                      0.03551783338569874
1985                      0.035602171355737955
1990                      0.03586334508046454
1995                      0.03630785143252077
2000                      0.03694690356668518
