% Model:              adattamento a studio.mph
% Version:            COMSOL 5.6.0.341
% Date:               Jun 6 2021, 14:00
% Dimension:          1
% Nodes:              381
% Expressions:        1
% Description:        Grafico tabella
%                         
100                       0.005847871958518267
105                       0.00611679136243041
110                       0.006418745479080318
115                       0.006758848066555036
120                       0.007143353003753138
125                       0.007579981909917709
130                       0.008078371768279576
135                       0.008650697043002606
140                       0.009312551014812728
145                       0.010084221575354073
150                       0.010992583842158983
155                       0.012073987741201093
160                       0.013378809051088795
165                       0.014978900164036255
170                       0.016980351476214923
175                       0.019546573816713632
180                       0.022942956086030336
185                       0.02763096408812199
190                       0.0344899830764639
195                       0.045428362899259965
200                       0.06550930967926685
205                       0.11405500341775572
210                       0.39345019251795826
215                       0.2912866127431308
220                       0.10998868795140868
225                       0.06919600686816352
230                       0.05128451303060688
235                       0.0412803733267461
240                       0.034939927993825615
245                       0.03059914782083551
250                       0.027472569461925066
255                       0.02514150584908312
260                       0.023362743962763104
265                       0.021985729737669515
270                       0.020912674346131033
275                       0.020077705939356354
280                       0.019435255463183403
285                       0.01895324928491085
290                       0.01860895602335519
295                       0.01838637554130548
300                       0.018274566654892906
305                       0.018266573303600788
310                       0.018358752423989065
315                       0.018550389293915275
320                       0.018843536735771237
325                       0.019243048635639838
330                       0.019756804629744218
335                       0.02039614754680475
340                       0.02117658354157281
345                       0.022118833020939598
350                       0.02325037765576955
355                       0.024607740573017525
360                       0.02623989169517704
365                       0.02821344300912691
370                       0.030620800493316176
375                       0.03359340808513785
380                       0.03732419352846949
385                       0.042107619003990945
390                       0.04841583059286703
395                       0.057055524252178386
400                       0.06952665398420622
405                       0.08896830361969407
410                       0.12323104576009238
415                       0.19895712777340657
420                       0.4978501244820429
425                       0.888676205547933
430                       0.25213323354423467
435                       0.14758365583848834
440                       0.10538022841303925
445                       0.08270836707176248
450                       0.06864698623217025
455                       0.05914146574195037
460                       0.05234198566397272
465                       0.047285157000336364
470                       0.04342057667743949
475                       0.04041160569453634
480                       0.03804141438229275
485                       0.03616467974043674
490                       0.034681018763271815
495                       0.03351956851938754
500                       0.0326296422589489
505                       0.03197487397499445
510                       0.03152946052412067
515                       0.03127572181083418
520                       0.031202528616601555
525                       0.0313043339601639
530                       0.03158065552518835
535                       0.03203592896041853
540                       0.03267970447378009
545                       0.033527204637561314
550                       0.03460030963253979
555                       0.035929097900460186
560                       0.03755416016799157
565                       0.03953004749270978
570                       0.04193045361231296
575                       0.04485615358670826
580                       0.048447497095920465
585                       0.052904755041697005
590                       0.05852268161205537
595                       0.06575232837744312
600                       0.0753188698261152
605                       0.08846499300563301
610                       0.107509112714306
615                       0.13732145908107482
620                       0.19012395925373757
625                       0.30729476223008184
630                       0.7471784699244105
635                       0.9630100008266187
640                       0.35150396983377635
645                       0.21164227578062791
650                       0.15228178669458273
655                       0.11976778275689899
660                       0.09939195038157496
665                       0.08552608002130548
670                       0.07555910944675535
675                       0.06811661137070926
680                       0.06240749384289675
685                       0.057945226303361096
690                       0.05441506589458457
695                       0.05160529573602677
700                       0.04936919043477844
705                       0.04760283950547906
710                       0.04623165883288012
715                       0.045201911083935606
720                       0.044475248556196924
725                       0.04402516114201572
730                       0.0438346820323443
735                       0.04389497101448358
740                       0.04420455619462466
745                       0.04476911996539182
750                       0.04560179242422048
755                       0.046723983600176044
760                       0.04816685980318825
765                       0.04997366588058178
770                       0.05220323823919703
775                       0.05493528382151335
780                       0.05827839276560589
785                       0.06238245397174899
790                       0.0674584562250962
795                       0.07381124448934752
800                       0.08189620081047506
805                       0.09242289020419317
810                       0.106558029465679
815                       0.12635906009591907
820                       0.1558119312844945
825                       0.20373259698945295
830                       0.29391712272388826
835                       0.5146689346151708
840                       1.179778357280182
845                       0.6553757134447881
850                       0.34449934352441225
855                       0.23101221006429806
860                       0.17433152804215046
865                       0.1407414177243869
870                       0.11869991054450103
875                       0.10324449908148564
880                       0.09190060634490246
885                       0.08329995579522718
890                       0.07662642614274959
895                       0.07136442562628813
900                       0.06717340787539285
905                       0.06382054285753447
910                       0.0611424174046472
915                       0.059022197054686434
920                       0.05737548339718129
925                       0.05614129910741566
930                       0.055276231082947304
935                       0.054750604597395655
940                       0.0545460280115166
945                       0.054653919624393095
950                       0.055074797233738704
955                       0.055818226195305305
960                       0.056903412478912646
965                       0.058360514052402696
970                       0.060232846035339994
975                       0.06258029645951534
980                       0.06548448758550698
985                       0.06905657857210726
990                       0.07344923410547835
995                       0.07887543142762342
1000                      0.08563897590968139
1005                      0.0941860323209511
1010                      0.10519650320017919
1015                      0.11975606957660691
1020                      0.13970510243171957
1025                      0.16841611614890747
1030                      0.2127504510337644
1035                      0.2888327809261643
1040                      0.44258640680471373
1045                      0.8053046055678613
1050                      0.871469941346192
1055                      0.47814801964263776
1060                      0.3073508169182254
1065                      0.2249809519685143
1070                      0.177820265153225
1075                      0.14764028812869878
1080                      0.12685344154364359
1085                      0.11178943563668244
1090                      0.10046898692632122
1095                      0.09173507454683971
1100                      0.08486842848801293
1105                      0.07939998582320235
1110                      0.07501214607681558
1115                      0.07148348778983417
1120                      0.06865623330609907
1125                      0.06641630819187512
1130                      0.0646807190351741
1135                      0.06338937184489053
1140                      0.06249969836020606
1145                      0.06198313622017981
1150                      0.061822896832267805
1155                      0.06201268862306551
1160                      0.06255621484170851
1165                      0.06346737464643576
1170                      0.06477118959066759
1175                      0.06650557513537125
1180                      0.06872419992167238
1185                      0.0715008539910772
1190                      0.07493602988084633
1195                      0.0791668961388833
1200                      0.08438268180157847
1205                      0.09084903817677302
1210                      0.0989479377204673
1215                      0.10924577246381048
1220                      0.12261553163432892
1225                      0.1404696497676544
1230                      0.16523756661124248
1235                      0.2014363810698258
1240                      0.25833355009941883
1245                      0.3571950469096375
1250                      0.547082112751306
1255                      0.7977353784702913
1260                      0.6269366903744313
1265                      0.40114058981514095
1270                      0.28309533757295957
1275                      0.2173275125597437
1280                      0.17654383574621343
1285                      0.14915100643485257
1290                      0.12967246435295116
1295                      0.11523737994523352
1300                      0.10421009735745387
1305                      0.09559570958972588
1310                      0.08875695717188552
1315                      0.08326852623927694
1320                      0.07883712417655646
1325                      0.0752552681596373
1330                      0.07237337732319028
1335                      0.07008230625444924
1340                      0.06830209978914416
1345                      0.06697460565606739
1350                      0.06605857481981126
1355                      0.06552643518271599
1360                      0.0653622497559975
1365                      0.06556057142039827
1370                      0.0661260401809163
1375                      0.06707366872231853
1380                      0.06842985024438002
1385                      0.0702342173800276
1390                      0.07254260280278149
1395                      0.07543152970393543
1400                      0.07900494117567831
1405                      0.08340434709254849
1410                      0.0888243877188605
1415                      0.0955373084269246
1420                      0.10393268428222144
1425                      0.11458440482530655
1430                      0.12836883963933993
1435                      0.14668456124097293
1440                      0.1718861809540828
1445                      0.20819701794588164
1450                      0.2637194628096961
1455                      0.35448385759927903
1460                      0.5035007517267897
1465                      0.6426817750018132
1470                      0.5410609161296588
1475                      0.38062770712182
1480                      0.27951499604833896
1485                      0.21835578976503858
1490                      0.17890906833164466
1495                      0.1518361044687142
1500                      0.13232790853754534
1505                      0.11774073086546454
1510                      0.10652349872245896
1515                      0.09771417535343623
1520                      0.09068800352611862
1525                      0.08502370668801769
1530                      0.08042841397365436
1535                      0.07669352125982289
1540                      0.07366768987318208
1545                      0.07123977107178806
1550                      0.06932771346933304
1555                      0.06787121256483525
1560                      0.06682678708184601
1565                      0.06616449110853133
1570                      0.06586578051412938
1575                      0.06592224366893668
1580                      0.06633503292443568
1585                      0.0671149253150113
1590                      0.06828301837289608
1595                      0.0698721452435481
1600                      0.07192918804984234
1605                      0.07451860003111271
1610                      0.07772764696827454
1615                      0.08167420088985848
1620                      0.08651846219814299
1625                      0.09248093600996234
1630                      0.09987070986760742
1635                      0.10913131616371609
1640                      0.12091777354775939
1645                      0.1362311243047818
1650                      0.1566629182550919
1655                      0.1848539937655194
1660                      0.2253495455666144
1665                      0.2859027976704827
1670                      0.37654909444348156
1675                      0.48440652467425116
1680                      0.5049105594613772
1685                      0.4067363785813054
1690                      0.30737211413790516
1695                      0.23941010284549719
1700                      0.1943068410209382
1705                      0.1632731752417091
1710                      0.14101378672037737
1715                      0.12446885627325109
1720                      0.11181538759015379
1725                      0.10192000616886589
1730                      0.09404870426301296
1735                      0.08770875782888013
1740                      0.08255919895303554
1745                      0.07835806785752886
1750                      0.07493018308805509
1755                      0.07214680638934728
1760                      0.06991245690739704
1765                      0.06815617094416455
1770                      0.06682561816959094
1775                      0.06588311582472302
1780                      0.06530295208781893
1785                      0.06506965484221665
1790                      0.06517698568160048
1795                      0.0656275368915271
1800                      0.06643288301719756
1805                      0.06761430314776481
1810                      0.06920415723916959
1815                      0.07124808229748353
1820                      0.07380828875620245
1825                      0.0769684095683019
1830                      0.08084062727244422
1835                      0.08557625270334478
1840                      0.09138168880922627
1845                      0.09854303440286631
1850                      0.1074649301261882
1855                      0.11873346651572823
1860                      0.13322044105582095
1865                      0.15225827064929306
1870                      0.1779264401423814
1875                      0.21344995236956993
1880                      0.26328852007427256
1885                      0.3300236946372308
1890                      0.3974512782210764
1895                      0.4104170927445083
1900                      0.3532722565132851
1905                      0.28263215564655114
1910                      0.22725208027901628
1915                      0.1876228104242398
1920                      0.1591855079889799
1925                      0.13827305519676086
1930                      0.12248112946320154
1935                      0.11027371560360091
1940                      0.10065380723636115
1945                      0.0929569948434036
1950                      0.08672827273929982
1955                      0.08164814437190686
1960                      0.07748735248593484
1965                      0.07407843461707643
1970                      0.07129739790508728
1975                      0.06905164271208337
1980                      0.06727185183669872
1985                      0.06590646755209982
1990                      0.06491790786289209
1995                      0.0642799912448176
2000                      0.0639762361897843
