% Model:              adattamento a studio.mph
% Version:            COMSOL 5.6.0.341
% Date:               Jun 9 2021, 16:41
% Dimension:          1
% Nodes:              361
% Expressions:        1
% Description:        Grafico tabella
%                         
200                       0.01138079508634602
205                       0.011655755689307483
210                       0.011947692160533228
215                       0.012257901067649258
220                       0.012587817725706198
225                       0.012939034742298773
230                       0.01331332362400666
235                       0.01371266004844724
240                       0.014139253546855397
245                       0.014595582519857533
250                       0.015084435736888127
255                       0.0156089617620028
260                       0.016172728127811356
265                       0.016779792574133996
270                       0.017434789318818377
275                       0.01814303419284328
280                       0.01891065363025687
285                       0.01974474407141974
290                       0.020653570482679743
295                       0.021646815663097025
300                       0.02273589616483638
305                       0.023934366552744685
310                       0.025258442221264044
315                       0.02672768340694839
320                       0.028365901507281188
325                       0.03020237680950427
330                       0.032273520025057234
335                       0.03462517851259857
340                       0.03731589916705843
345                       0.04042164530005275
350                       0.044042783995536954
355                       0.04831473009553987
360                       0.053424692493620606
365                       0.05963903522120818
370                       0.06735002952077195
375                       0.07716017560846067
380                       0.09004475897220425
385                       0.10769280062232943
390                       0.13330586811449677
395                       0.17377857809526126
400                       0.24717541105741356
405                       0.42066709505467054
410                       1.320603566319999
415                       1.1614553413480162
420                       0.41671628200219196
425                       0.25625409037730185
430                       0.18648494755874523
435                       0.1475319698672554
440                       0.12271548752377007
445                       0.10555409911917273
450                       0.09300447767364027
455                       0.08344883495830846
460                       0.07594785593494248
465                       0.06991885904501438
470                       0.0649812827372681
475                       0.06087610182616876
480                       0.05742095442877081
485                       0.05448378754479503
490                       0.051966679542074456
495                       0.0497955325037311
500                       0.04791329187208169
505                       0.046275361679583356
510                       0.04484642891558559
515                       0.043598216917770806
520                       0.04250786602103066
525                       0.041556746828743926
530                       0.040729577647470636
535                       0.04001375953502287
540                       0.039398869556945576
545                       0.03887627079206863
550                       0.0384388097149573
555                       0.038080579866725674
560                       0.0377967364943521
565                       0.03758335091861745
570                       0.037437296319173786
575                       0.03735615875953544
580                       0.03733816885483575
585                       0.03738215067616103
590                       0.03748748540189722
595                       0.037654087950684804
600                       0.03788239542215014
605                       0.03817336667537157
610                       0.03852849282697802
615                       0.038949818880925746
620                       0.039439977138007586
625                       0.040002233502232705
630                       0.04064054833428968
635                       0.04135965413454243
640                       0.0421651531145814
645                       0.04306363869600057
650                       0.04406284623677767
655                       0.04517183993889781
660                       0.04640124508891335
665                       0.04776353774461269
670                       0.04927340802304904
675                       0.050948218732059666
680                       0.05280858891273612
685                       0.05487914297318664
690                       0.057189482109137144
695                       0.05977545815755639
700                       0.06268086496233605
705                       0.06595971535661871
710                       0.06967935403327193
715                       0.07392478683588706
720                       0.07880481880439795
725                       0.08446094759631823
730                       0.09108057074220523
735                       0.09891716081620595
740                       0.10832210775455567
745                       0.11979693343766346
750                       0.13408288622187
755                       0.15232333033686807
760                       0.17637863777611057
765                       0.20949131826316864
770                       0.25785776447543285
775                       0.3349635629240281
780                       0.4766258397776157
785                       0.8176967991604358
790                       2.4093435811020503
795                       1.5776913254113345
800                       0.6827463340330036
805                       0.43210310100616633
810                       0.31656742435627255
815                       0.25038155969183357
820                       0.2075920947651472
825                       0.17771308129751304
830                       0.1557067023189854
835                       0.13885399590622324
840                       0.12555911497165984
845                       0.1148240257155034
850                       0.10599272048972941
855                       0.0986163768933225
860                       0.09237763507047689
865                       0.08704582061142395
870                       0.08244930302388387
875                       0.07845779985276713
880                       0.07497068887119146
885                       0.07190907683621382
890                       0.06921028852716833
895                       0.06682395676814096
900                       0.06470919651857969
905                       0.06283252850743
910                       0.061166330953644495
915                       0.05968766974978361
920                       0.05837740414415732
925                       0.057219495878495306
930                       0.056200470609558746
935                       0.05530899477095198
940                       0.05453554102210662
945                       0.0538721225010557
950                       0.05331208117048957
955                       0.052849919237035435
960                       0.05248116534502062
965                       0.052202269282340674
970                       0.05201052048416055
975                       0.051903986819482696
980                       0.051881471096447515
985                       0.05194248349860902
990                       0.052087228822495474
995                       0.052316607971161236
1000                      0.05263223370698666
1005                      0.0530364612135149
1010                      0.05353243459470576
1015                      0.05412415108737471
1020                      0.05481654552137319
1025                      0.05561559848598878
1030                      0.05652847281943292
1035                      0.057563684524529805
1040                      0.0587313161568177
1045                      0.06004328331142316
1050                      0.061513668310409386
1055                      0.06315913993518525
1060                      0.06499948460801609
1065                      0.06705828361888438
1070                      0.06936378405898441
1075                      0.07195002996716601
1080                      0.07485834781598545
1085                      0.07813932164987737
1090                      0.08185545576774073
1095                      0.0860848199137283
1100                      0.09092612597934548
1105                      0.09650593591617512
1110                      0.10298912023590763
1115                      0.1105944116730745
1120                      0.11961819756587651
1125                      0.13047211874624795
1130                      0.14374478642937025
1135                      0.16030773847278876
1140                      0.1815074131354648
1145                      0.20953663184123753
1150                      0.24821499441078462
1155                      0.3048100984401683
1160                      0.3949175576188225
1165                      0.5581594215055781
1170                      0.919280610557871
1175                      1.685276463445432
1180                      1.171058491454367
1185                      0.6564032072339315
1190                      0.44165106033558305
1195                      0.3307816265507528
1200                      0.2640295061435457
1205                      0.21967509370601127
1210                      0.18816206031066057
1215                      0.16467051161950177
1220                      0.14651674256860694
1225                      0.13209122640757495
1230                      0.12037134463936705
1235                      0.11067677390441973
1240                      0.10253759905943806
1245                      0.09561895843820258
1250                      0.0896758714134825
1255                      0.0845250425599104
1260                      0.08002664507854881
1265                      0.07607219614910582
1270                      0.07257627492527843
1275                      0.0694707348244274
1280                      0.06670057634578375
1285                      0.06422095049157184
1290                      0.06199494763560506
1295                      0.059991942041818916
1300                      0.058186335980781254
1305                      0.05655659555493342
1310                      0.055084502414676
1315                      0.05375456728585029
1320                      0.052553566205205286
1325                      0.05147017083366627
1330                      0.050494651643192924
1335                      0.04961863810754661
1340                      0.04883492390499723
1345                      0.048137307992849945
1350                      0.047520464533607795
1355                      0.04697983624508944
1360                      0.04651154695601963
1365                      0.04611233007600408
1370                      0.04577947040877528
1375                      0.045510757302784664
1380                      0.04530444758375047
1385                      0.04515923707888433
1390                      0.045074239844719526
1395                      0.0450489744672725
1400                      0.045083357028584625
1405                      0.04517770053954021
1410                      0.04533272083494747
1415                      0.04554954912349104
1420                      0.04582975159125464
1425                      0.04617535668413348
1430                      0.04658889095272095
1435                      0.04707342464820728
1440                      0.047632628626694894
1445                      0.0482708445755145
1450                      0.04899317114894383
1455                      0.04980556933278928
1460                      0.05071499130292782
1465                      0.0517295382785293
1470                      0.052858654502087696
1475                      0.05411336665573671
1480                      0.05550658095963713
1485                      0.05705345420231139
1490                      0.058771860475432466
1495                      0.06068298309601518
1500                      0.06281207210432374
1505                      0.06518942336535047
1510                      0.06785165807019634
1515                      0.07084341512263044
1520                      0.0742196196315138
1525                      0.0780485686239269
1530                      0.08241619723856043
1535                      0.08743208469462446
1540                      0.09323808214447672
1545                      0.10002099145449221
1550                      0.10803168050147703
1555                      0.11761475387558394
1560                      0.12925616602107773
1565                      0.1436626062188919
1570                      0.161899828107044
1575                      0.18564625569361484
1580                      0.21768545510646636
1585                      0.26292247754889925
1590                      0.33058212819933014
1595                      0.43869215175973075
1600                      0.61592739605439
1605                      0.8175608462011154
1610                      0.7462516999499209
1615                      0.5309837782831762
1620                      0.38477551982184355
1625                      0.29596600146475566
1630                      0.23889347735613864
1635                      0.1997749750138887
1640                      0.17151307177375105
1645                      0.15023578416920247
1650                      0.13368933176381598
1655                      0.12048462013343904
1660                      0.10972321078277976
1665                      0.10080007211571684
1670                      0.0932936766407562
1675                      0.08690174933586084
1680                      0.08140210643018582
1685                      0.07662790802094648
1690                      0.07245151857030298
1695                      0.06877368620156424
1700                      0.06551610883013424
1705                      0.06261621524553357
1710                      0.06002342964384912
1715                      0.057696451130696935
1720                      0.055601241154768805
1725                      0.053709513395922025
1730                      0.05199758597084325
1735                      0.05044549871785813
1740                      0.04903632701591871
1745                      0.04775564311460454
1750                      0.04659108944416736
1755                      0.04553203783490168
1760                      0.0445693152989576
1765                      0.04369498186540931
1770                      0.0429021494820313
1775                      0.042184833589561314
1780                      0.04153783090224871
1785                      0.0409566183761756
1790                      0.04043726944433416
1795                      0.03997638443682843
1800                      0.039571032752547815
1805                      0.039218704853255855
1810                      0.038917272547783356
1815                      0.03866495634919464
1820                      0.03846029894085279
1825                      0.038302143993500536
1830                      0.038189619745831536
1835                      0.03812212690477442
1840                      0.038099330545880515
1845                      0.03812115580447086
1850                      0.038187787249827625
1855                      0.03829967193167945
1860                      0.03845752618503479
1865                      0.03866234637990617
1870                      0.03891542391109799
1875                      0.039218364844757915
1880                      0.03957311477867182
1885                      0.03998198963898663
1890                      0.04044771333604378
1895                      0.04097346344726069
1900                      0.04156292639983527
1905                      0.042220364009598305
1910                      0.04295069371955393
1915                      0.04375958550693147
1920                      0.04465357923686915
1925                      0.045640227297940025
1930                      0.046728268747811136
1935                      0.047927843050075004
1940                      0.04925075397098651
1945                      0.05071079757832649
1950                      0.05232417290816446
1955                      0.05411000027252411
1960                      0.056090981166545165
1965                      0.05829424649570687
1970                      0.06075245821626808
1975                      0.06350525631909068
1980                      0.06660118290325537
1985                      0.07010027515432525
1990                      0.07407761130316995
1995                      0.07862823809326647
2000                      0.0838741391187374
