% Model:              adattamento a studio.mph
% Version:            COMSOL 5.6.0.341
% Date:               Jun 9 2021, 16:57
% Dimension:          1
% Nodes:              361
% Expressions:        1
% Description:        Grafico tabella
%                         
200                       0.012286547474325256
205                       0.012562288403372349
210                       0.012854231682885867
215                       0.013163529365037419
220                       0.013491448821051515
225                       0.013839387063534542
230                       0.014208887263711459
235                       0.014601657864559732
240                       0.015019594777276962
245                       0.015464807255485878
250                       0.01593964817670486
255                       0.016446749630443278
260                       0.01698906492854395
265                       0.017569918429587394
270                       0.018193064924875674
275                       0.018862760794757353
280                       0.019583849747137606
285                       0.020361866744617544
290                       0.021203164783142305
295                       0.02211507060320555
300                       0.023106077336708202
305                       0.02418608472642193
310                       0.025366701205927978
315                       0.02666162725119866
320                       0.028087146702672327
325                       0.029662763273189244
330                       0.03141203487542023
335                       0.03336368139945107
340                       0.03555307652363862
345                       0.03802428838304638
350                       0.04083292004164889
355                       0.04405014100181882
360                       0.047768536120310255
365                       0.05211080533188246
370                       0.05724307846461229
375                       0.06339597822261277
380                       0.07089925611594056
385                       0.08024143215322026
390                       0.09217837448620271
395                       0.1079450872456215
400                       0.12970667672588598
405                       0.1616365738232229
410                       0.21294636808387943
415                       0.30876252071768473
420                       0.5504281758748827
425                       2.246094645417982
430                       1.0586080297869471
435                       0.4431301008778928
440                       0.28274201332522947
445                       0.20918522210760637
450                       0.16704329586384756
455                       0.13977957252132253
460                       0.12073190957242422
465                       0.1067003151451837
470                       0.09595678707918845
475                       0.08748634427384751
480                       0.08065374012382166
485                       0.07504113707341581
490                       0.07036249274120594
495                       0.06641545298407342
500                       0.06305288715018884
505                       0.06016530572620469
510                       0.05766959782061955
515                       0.0555015885747026
520                       0.05361098632895363
525                       0.051957870301100766
530                       0.05051019783265929
535                       0.04924200237492938
540                       0.048132069317744185
545                       0.04716294866596418
550                       0.04632020926954275
555                       0.045591869010598224
560                       0.044967955040412344
565                       0.04444016145610054
570                       0.04400158093844508
575                       0.043646493244039054
580                       0.04337019795661383
585                       0.04316888214231672
590                       0.0430395159140523
595                       0.04297977065270728
600                       0.0429879559408781
605                       0.04306297226158627
610                       0.0432042772908402
615                       0.04341186423221941
620                       0.043686251151446594
625                       0.04402848070583399
630                       0.04444013005567568
635                       0.044923331117174184
640                       0.04548080169098339
645                       0.04611588839940783
650                       0.04683262281135457
655                       0.0476357926564701
660                       0.04853103065969284
665                       0.049524924310231894
670                       0.05062515086945911
675                       0.051840643199160874
680                       0.053181793659213196
685                       0.054660705530853136
690                       0.05629150437727389
695                       0.058090725757247136
700                       0.06007780119690216
705                       0.06227567194325011
710                       0.06471157073516695
715                       0.0674180270974015
720                       0.07043417375749836
725                       0.07380746427309615
730                       0.07759596057110033
735                       0.0818714232550739
740                       0.08672355306752949
745                       0.09226591614009345
750                       0.09864438723825572
755                       0.10604945342178622
760                       0.11473460560878924
765                       0.1250446456662008
770                       0.13746075664448668
775                       0.15267517548531928
780                       0.17172091550546423
785                       0.19621045180913874
790                       0.2288073254643317
795                       0.2742465937799923
800                       0.34182524704312467
805                       0.4525924886183226
810                       0.66612228016325
815                       1.2351060692752494
820                       3.9639388203077397
825                       1.492299756523353
830                       0.7499946318511944
835                       0.4992931746993912
840                       0.37511674286876906
845                       0.3012802774392802
850                       0.25244767135204554
855                       0.21782536763885155
860                       0.19204711335750385
865                       0.17214616224003035
870                       0.15634984209030894
875                       0.1435341224624518
880                       0.13295201684576408
885                       0.1240878679410499
890                       0.11657434824588842
895                       0.11014280130518038
900                       0.10459228336209986
905                       0.09976957715973728
910                       0.09555589568249709
915                       0.09185780255566652
920                       0.08860086834551321
925                       0.08572514791868238
930                       0.08318189775771648
935                       0.08093115490568108
940                       0.07893992573938502
945                       0.07718081362797898
950                       0.07563096733358152
955                       0.07427126717232775
960                       0.07308568979495995
965                       0.0720608088811522
970                       0.07118540054834599
975                       0.07045013045059768
980                       0.06984730543322787
985                       0.06937067691320084
990                       0.06901528634631529
995                       0.06877734554590803
1000                      0.06865414646167345
1005                      0.06864399647315979
1010                      0.06874617641907181
1015                      0.06896091955861307
1020                      0.06928941051420286
1025                      0.06973380403246358
1030                      0.07029726417307279
1035                      0.07098402534141271
1040                      0.0717994774725627
1045                      0.07275027871031366
1050                      0.07384450017813231
1055                      0.07509180900382265
1060                      0.07650369776135875
1065                      0.07809377110494349
1070                      0.07987810383379929
1075                      0.08187568928596743
1080                      0.08410900331397013
1085                      0.08660471787691398
1090                      0.0893946105824142
1095                      0.0925167339802975
1100                      0.09601693359001662
1105                      0.09995084052299469
1110                      0.10438651951021394
1115                      0.10940803656939166
1120                      0.11512033982978336
1125                      0.12165605198038204
1130                      0.12918510597554939
1135                      0.13792871265583218
1140                      0.14818011007474927
1145                      0.16033626303861861
1150                      0.17494788276206266
1155                      0.1928013868323957
1160                      0.2150593105212649
1165                      0.24351404677406843
1170                      0.2810772564092346
1175                      0.33280370091243033
1180                      0.4082672395697666
1185                      0.5278778260983559
1190                      0.7429729982793553
1195                      1.2129554097109236
1200                      2.231246302618708
1205                      1.6240057797609408
1210                      0.9072636577040252
1215                      0.6080677946282079
1220                      0.45449825205485345
1225                      0.36241971365536146
1230                      0.30141344858527985
1235                      0.2581612556170079
1240                      0.2259712878513334
1245                      0.20112837823210722
1250                      0.1814094786406342
1255                      0.16540476013996516
1260                      0.15217771203589536
1265                      0.14108228246779314
1270                      0.1316585921410446
1275                      0.12357051578167975
1280                      0.11656677357685462
1285                      0.11045582249655252
1290                      0.10508916134343929
1295                      0.10034993716693531
1300                      0.09614498951166099
1305                      0.09239918137395826
1310                      0.08905128591839916
1315                      0.08605095326982289
1320                      0.0833564409229651
1325                      0.08093289302008008
1330                      0.07875102012215443
1335                      0.07678607527028476
1340                      0.07501705205483816
1345                      0.0734260510126831
1350                      0.07199777507408608
1355                      0.07071912498838231
1360                      0.06957887298781112
1365                      0.06856739827705485
1370                      0.06767647185477947
1375                      0.06689908108730473
1380                      0.06622928664575407
1385                      0.06566210608393233
1390                      0.0651934196155871
1395                      0.06481989464821813
1400                      0.06453892642007054
1405                      0.06434859272221814
1410                      0.06424762121039014
1415                      0.06423536825271485
1420                      0.06431180864615003
1425                      0.06447753588622282
1430                      0.0647337730109464
1435                      0.06508239437728659
1440                      0.06552595908499363
1445                      0.06606775715648863
1450                      0.06671187003494779
1455                      0.06746324750183733
1460                      0.06832780377362223
1465                      0.06931253635865879
1470                      0.0704256722973264
1475                      0.071676847749954
1480                      0.07307732864567518
1485                      0.0746402824113013
1490                      0.076381113873887
1495                      0.07831788257580981
1500                      0.08047182439171928
1505                      0.08286800813054888
1510                      0.0855361686870922
1515                      0.08851177370014744
1520                      0.09183740275240256
1525                      0.09556455029644897
1530                      0.09975601107213378
1535                      0.10448907845773978
1540                      0.10985989627972373
1545                      0.11598947728542408
1550                      0.123032178739309
1555                      0.1311878823679384
1560                      0.14071990016791286
1565                      0.15198198254582726
1570                      0.16546026215270607
1575                      0.18184060283682182
1580                      0.20212097030165613
1585                      0.22780740654852621
1590                      0.26127368752725644
1595                      0.3064605986539716
1600                      0.37032117771176737
1605                      0.46595129654917616
1610                      0.6189724696552977
1615                      0.8699149966208461
1620                      1.1520631716866208
1625                      1.0448711144864546
1630                      0.7422390341087459
1635                      0.5381134308239949
1640                      0.4141752780032806
1645                      0.3344829483743125
1650                      0.27982772188809346
1655                      0.24032163658516098
1660                      0.21056780073053785
1665                      0.187422947548486
1670                      0.1689486599534275
1675                      0.15389058157319244
1680                      0.14140363139945739
1685                      0.13089882011588333
1690                      0.1219536522800049
1695                      0.11425749281380762
1700                      0.10757702861162527
1705                      0.10173373575966141
1710                      0.09658876775286888
1715                      0.09203257073800064
1720                      0.08797759111626859
1725                      0.08435305480729866
1730                      0.0811011642923144
1735                      0.07817428477189353
1740                      0.07553283249946159
1745                      0.07314366955219023
1750                      0.070978869192556
1755                      0.06901475604273213
1760                      0.06723115256046237
1765                      0.06561078215348881
1770                      0.06413879248846809
1775                      0.06280237194630246
1780                      0.06159043893833773
1785                      0.06049338872220574
1790                      0.059502885981274165
1795                      0.05861169412795996
1800                      0.057813534316907465
1805                      0.05710296868968101
1810                      0.056475303548306856
1815                      0.055926509062808064
1820                      0.055453152825774565
1825                      0.05505234512438411
1830                      0.054721694243911226
1835                      0.054459270474323786
1840                      0.054263577783930435
1845                      0.05413353236739625
1850                      0.054068447482520245
1855                      0.05406802417105536
1860                      0.05413234762219905
1865                      0.054261889090385276
1870                      0.05445751342834028
1875                      0.05472049244870769
1880                      0.05505252448915327
1885                      0.05545576073444858
1890                      0.055932839052543364
1895                      0.05648692634041428
1900                      0.05712177066176886
1905                      0.057841764808378646
1910                      0.05865202335046214
1915                      0.05955847578595104
1920                      0.06056797908966483
1925                      0.061688453849717814
1930                      0.06292904932543908
1935                      0.06430034425942167
1940                      0.06581459225091646
1945                      0.06748602312494388
1950                      0.06933121526008226
1955                      0.07136955862527605
1960                      0.07362383484022843
1965                      0.07612094967588956
1970                      0.07889286618348107
1975                      0.08197780479184619
1980                      0.08542180286229308
1985                      0.08928076441468105
1990                      0.09362318749475669
1995                      0.09853384234961199
2000                      0.10411880532090605
