% Model:              adattamento a studio.mph
% Version:            COMSOL 5.6.0.341
% Date:               Jun 6 2021, 16:16
% Dimension:          1
% Nodes:              381
% Expressions:        1
% Description:        Grafico tabella
%                         
100                       119.58695616823009
105                       169.24089035870372
110                       310.35930008227893
115                       1375.126747131904
120                       304.8130079501807
125                       143.29333272536792
130                       89.57785267307129
135                       62.89693699181142
140                       46.96508491413997
145                       36.37816925086957
150                       28.830295327042908
155                       23.172531538334802
160                       18.76825261090634
165                       15.236172251754358
170                       12.333884806411682
175                       9.899777793471836
180                       7.821813980638111
185                       6.01971659368253
190                       4.434287697433356
195                       3.020733946519091
200                       1.7443710986976302
205                       0.5782179366882568
210                       0.5048775733144512
215                       1.515701945626796
220                       2.4753586839508537
225                       3.3974958171831147
230                       4.295336085636207
235                       5.181685430746558
240                       6.0694900441170985
245                       6.9724767853178236
250                       7.905921067774622
255                       8.887638934265807
260                       9.939356147338058
265                       11.088704981761538
270                       12.373372150434347
275                       13.844278817675528
280                       15.92877924496663
285                       19.287497130410163
290                       23.65121740224665
295                       28.811606471754704
300                       33.22842945602368
305                       36.1280452213587
310                       49.08139086741873
315                       77.62446433452504
320                       195.92850662699684
325                       300.62853347119443
330                       83.27839910615396
335                       46.68374331453957
340                       31.58117257430583
345                       23.28935414863841
350                       18.01726338554805
355                       14.346982525096973
360                       11.628024608735034
365                       9.519873023605445
370                       7.8268662519116186
375                       6.428451815479258
380                       5.246187436419575
385                       4.226723626431523
390                       3.332411970740754
395                       2.5358333229735006
400                       1.8164814139560095
405                       1.1587762455727628
410                       0.5517161666228682
415                       0.08429031673342495
420                       0.5735504858020033
425                       1.0904121488230412
430                       1.5931611910344705
435                       2.086602973610986
440                       2.5763596169069736
445                       3.068288586363311
450                       3.5686316802161393
455                       4.084300314113018
460                       4.623260910390806
465                       5.195058281356617
470                       5.81155471070335
475                       6.488017450051698
480                       7.24478471834076
485                       8.109925925751421
490                       9.125188978712877
495                       10.35030838853835
500                       12.1308097175449
505                       15.369112173474313
510                       19.89704163665985
515                       24.757698363372725
520                       27.60092994998886
525                       41.710938942243516
530                       87.78175930449534
535                       439.0740776530854
540                       62.26300813325383
545                       32.13582320168032
550                       21.064943912931504
555                       15.276424207133081
560                       11.6917540615035
565                       9.235062343966254
570                       7.432724859247439
575                       6.043480607813601
580                       4.931416061314424
585                       4.014047508418232
590                       3.2383488265878317
595                       2.5686255951116426
600                       1.9799402893691995
605                       1.454381324743691
610                       0.9790261452726371
615                       0.5459232306242229
620                       0.1726035025474699
625                       0.28713961073219324
630                       0.638700936247958
635                       0.9876704322274275
640                       1.3296462698083618
645                       1.6672437506548696
650                       2.0039213183309843
655                       2.3434362827672772
660                       2.6898649482365347
665                       3.0477598323137447
670                       3.422387829706369
675                       3.8200622814875933
680                       4.2486133225075875
685                       4.718076362714923
690                       5.241737304590344
695                       5.837782147599819
700                       6.533069167235435
705                       7.365349637851373
710                       8.393841673324923
715                       10.275532129238432
720                       13.271317324487963
725                       17.208473656649804
730                       20.87590308890836
735                       26.13080974924055
740                       47.07538474030932
745                       271.2189523833759
750                       63.56254753323729
755                       27.674925050755913
760                       17.127743746728772
765                       12.05240607719355
770                       9.045036869108563
775                       7.039823988836964
780                       5.595791541180158
785                       4.497390668021596
790                       3.626724053522318
795                       2.913891375389821
800                       2.3146860735750545
805                       1.7998431501343146
810                       1.3493832647720931
815                       0.9495855368624128
820                       0.5923890931184503
825                       0.28413205108133294
830                       0.17801910588858516
835                       0.40436581691528245
840                       0.670357954821935
845                       0.9340325931033303
850                       1.1931052448319557
855                       1.4491408073695566
860                       1.7044832090357764
865                       1.9617694030005544
870                       2.223884485556014
875                       2.494042765880396
880                       2.7759346887820233
885                       3.073938058100282
890                       3.3934164938713
895                       3.741150536392356
900                       4.125980389309481
905                       4.559908315374468
910                       5.060188993419999
915                       5.650244003965054
920                       6.366196876192132
925                       7.445958303379391
930                       9.392740719312929
935                       12.112874623310999
940                       15.237980645686266
945                       16.781367625239184
950                       25.474097391157336
955                       55.96688564748008
960                       180.83208257403638
965                       33.45149875209626
970                       17.611120785769828
975                       11.554743254043794
980                       8.333666267274841
985                       6.318876796333254
990                       4.928505356173692
995                       3.902935135057713
1000                      3.1088303221634384
1005                      2.4706829566935204
1010                      1.9425719580636214
1015                      1.495089671001027
1020                      1.1088639360131556
1025                      0.7716086119587482
1030                      0.4789187476210388
1035                      0.2521375189059982
1040                      0.22930149521138293
1045                      0.4071824023634869
1050                      0.618738917859025
1055                      0.831030659427168
1060                      1.03997073174414
1065                      1.2459807682146302
1070                      1.4505522159169864
1075                      1.655539860561757
1080                      1.8630091529325736
1085                      2.0752427700085856
1090                      2.2948139713613487
1095                      2.524706787537092
1100                      2.768488086046688
1105                      3.03055182918741
1110                      3.3164731606282545
1115                      3.6336300977203018
1120                      3.99233938752651
1125                      4.405900417811822
1130                      4.894113842961275
1135                      5.486776219352722
1140                      6.535894751246158
1145                      8.182188566632846
1150                      10.371424188305117
1155                      12.807138404072544
1160                      14.005751853644794
1165                      21.123649652471695
1170                      45.14357311732871
1175                      173.2822484071476
1180                      28.703806931166838
1185                      14.845536816431528
1190                      9.641396714674705
1195                      6.895240213367593
1200                      5.185516844051402
1205                      4.009575327847349
1210                      3.144533411843623
1215                      2.476453219196888
1220                      1.9411137227414301
1225                      1.4997487050012754
1230                      1.1279917885326411
1235                      0.8108170029136226
1240                      0.5417419947341322
1245                      0.33130958683659983
1250                      0.24484572286754813
1255                      0.3364806136190244
1260                      0.49895813643401676
1265                      0.673434076892746
1270                      0.847455465497629
1275                      1.0188079085344934
1280                      1.187789812124808
1285                      1.3554755293126244
1290                      1.5232442496717826
1295                      1.6926525470842428
1300                      1.865424460331518
1305                      2.0434945773518605
1310                      2.2290867759002286
1315                      2.4248293070570344
1320                      2.6339176278054706
1325                      2.860347417365999
1330                      3.109536864973032
1335                      3.3883136864258803
1340                      3.7058181001168
1345                      4.07517728038009
1350                      4.515595324733123
1355                      5.213346662024642
1360                      6.332745746980882
1365                      7.889734262279578
1370                      9.734485412612234
1375                      11.30591998698811
1380                      13.581490517378237
1385                      21.917289252002007
1390                      62.80205207777038
1395                      57.944163782109385
1400                      18.814172433578037
1405                      10.695777090518204
1410                      7.1729284050140185
1415                      5.190990811840648
1420                      3.9112654752369935
1425                      3.0103211583680913
1430                      2.337102712229973
1435                      1.8117817322924905
1440                      1.3885430857151224
1445                      1.039914408244237
1450                      0.75007407151734
1455                      0.5139341342888945
1460                      0.3452722269498222
1465                      0.2917438437852559
1470                      0.3658523834113998
1475                      0.49685293934162633
1480                      0.6417653014024112
1485                      0.7879719366214041
1490                      0.9322487451573921
1495                      1.0741931693679352
1500                      1.2143662140118678
1505                      1.3537055398117126
1510                      1.4933325900902368
1515                      1.6344987129763062
1520                      1.7785903358620814
1525                      1.9271664487745286
1530                      2.0820213389345077
1535                      2.245274932537057
1540                      2.4194999710264757
1545                      2.608099227041275
1550                      2.8152390257021396
1555                      3.046183262840963
1560                      3.308282935227378
1565                      3.611809985596498
1570                      3.9716366520246744
1575                      4.603948609185007
1580                      5.5010750222707205
1585                      6.735382224972083
1590                      8.184589044667456
1595                      9.444054556296889
1600                      10.82676310705303
1605                      16.296706998586647
1610                      35.39639011515936
1615                      106.3048203940966
1620                      20.202036930560034
1625                      10.474186972489765
1630                      6.744363594589501
1635                      4.760945334003969
1640                      3.5222656487399115
1645                      2.6700217986742887
1650                      2.044482370092089
1655                      1.564058347702032
1660                      1.1834205552268555
1665                      0.8767695771690858
1670                      0.631539325147758
1675                      0.44904407450583406
1680                      0.35013921054154945
1685                      0.3567680745909247
1690                      0.43981356280694656
1695                      0.5535805521237127
1700                      0.675816549902202
1705                      0.7987831876116388
1710                      0.9201172974826985
1715                      1.0394346674928119
1720                      1.157099429560709
1725                      1.2737804003776114
1730                      1.3903318169500387
1735                      1.5077181554386565
1740                      1.6270079951320067
1745                      1.74939497401496
1750                      1.8762385057996305
1755                      2.0091242581131095
1760                      2.1499493803964653
1765                      2.3013649353949774
1770                      2.4660622448073086
1775                      2.647846341445909
1780                      2.851779460240273
1785                      3.0847819494146083
1790                      3.3566220979867842
1795                      3.802874362036991
1800                      4.413525181088025
1805                      5.297450848409445
1810                      6.350561676914494
1815                      7.528349494843068
1820                      7.954860895594036
1825                      10.420003344305844
1830                      16.60724193708641
1835                      46.61499607465958
1840                      43.2797181989699
1845                      13.832803474670312
1850                      7.743774876538843
1855                      5.109576293727809
1860                      3.632370804542703
1865                      2.6826606815515643
1870                      2.018359239812955
1875                      1.5271204595471999
1880                      1.1506965612909332
1885                      0.8577184193971671
1890                      0.6334726530672659
1895                      0.47745599200259015
1900                      0.40108277654995533
1905                      0.40788400214348264
1910                      0.4724817044671586
1915                      0.563735932610107
1920                      0.6641898797733655
1925                      0.7665021331987166
1930                      0.8679302816062207
1935                      0.9676635101145478
1940                      1.065722930061134
1945                      1.162507134063447
1950                      1.258656690062723
1955                      1.3548215854990584
1960                      1.4517725949936509
1965                      1.5503685948250574
1970                      1.6515713439410655
1975                      1.7564785717552598
1980                      1.8663922497213892
1985                      1.9830829567892934
1990                      2.108227310775685
1995                      2.2442011714168686
2000                      2.394066613063547
