% Model:              adattamento a studio.mph
% Version:            COMSOL 5.6.0.341
% Date:               Jun 6 2021, 15:26
% Dimension:          1
% Nodes:              381
% Expressions:        1
% Description:        Grafico tabella
%                         
100                       104.21301830401059
105                       137.73876625494228
110                       212.2305197352372
115                       507.6307385180179
120                       619.9350469146023
125                       202.54431665991794
130                       113.76933219297125
135                       75.9883936910355
140                       55.21781639202981
145                       42.16075249924387
150                       33.130970688976475
155                       26.519793319338284
160                       21.46921206804097
165                       17.48121997241303
170                       14.247347446006307
175                       11.566416492454938
180                       9.301589924238609
185                       7.356462814317256
190                       5.661034883085887
195                       4.163108749363073
200                       2.822816455609883
205                       1.6090543887049737
210                       0.4976975877820993
215                       0.537097913776454
220                       1.5037153942200179
225                       2.4220689183460644
230                       3.3046735159260887
235                       4.163641320514194
240                       5.010782717874471
245                       5.858611534365564
250                       6.719012098015979
255                       7.605707682241419
260                       8.535608788382683
265                       9.527169954029581
270                       10.604443607365875
275                       11.798907039641973
280                       13.153290752260613
285                       14.998302540480449
290                       18.279474720201115
295                       22.89446893938773
300                       29.49042376752471
305                       37.710077525378615
310                       42.24197420091208
315                       41.75400180953303
320                       60.419816196470194
325                       112.42146899879435
330                       778.1613811314805
335                       129.70984247656398
340                       59.83162289147308
345                       37.82164554492843
350                       26.968750629954354
355                       20.466779521539205
360                       16.115266508384845
365                       12.981652615220188
370                       10.603825273417435
375                       8.726780773256335
380                       7.198240265298193
385                       5.921574383438676
390                       4.832421557956956
395                       3.886168094662841
400                       3.050828954988292
405                       2.302800966891162
410                       1.624252023845818
415                       1.001616505274453
420                       0.42634683246701005
425                       0.1509107363329274
430                       0.6496677439085382
435                       1.1447908924774377
440                       1.6268752441767125
445                       2.1005566330781544
450                       2.5710477606629003
455                       3.0437748551120265
460                       3.5245717629341664
465                       4.020295417026981
470                       4.537981667787517
475                       5.086450890992469
480                       5.677125717158692
485                       6.323879628857128
490                       7.045099544438813
495                       7.8662009653113945
500                       8.823282202324345
505                       9.969761761555791
510                       11.653855234675996
515                       14.916067388896597
520                       20.037253057151506
525                       27.49123337725068
530                       31.643054600217884
535                       36.34302228342654
540                       66.88968973646246
545                       462.06863119846577
550                       82.38713466498608
555                       37.24601459028988
560                       23.397350178124665
565                       16.609344359267673
570                       12.55951323591386
575                       9.851498987757658
580                       7.8995051447498215
585                       6.414980820112932
590                       5.239321782324089
595                       4.278078171595796
600                       3.4714423430299153
605                       2.7796514773280867
610                       2.175206463431311
615                       1.638492435205754
620                       1.1552892957553316
625                       0.7157963871454788
630                       0.31906973487137186
635                       0.15231907263175998
640                       0.4711335624368455
645                       0.8135802559032999
650                       1.1493230844923223
655                       1.4793450656977474
660                       1.806656624752379
665                       2.134689307638356
670                       2.4671427700240187
675                       2.8083773250430504
680                       3.1628867465430535
685                       3.536022287445509
690                       3.934642602955746
695                       4.367089137734711
700                       4.843954931492418
705                       5.379674678546004
710                       5.994245524991763
715                       6.716411305301708
720                       7.589269856351238
725                       8.827226054994519
730                       11.351163636903589
735                       15.369468427741337
740                       21.160480420866264
745                       23.574410771902855
750                       30.006491963427305
755                       63.16474920994261
760                       304.8953906176206
765                       44.788863484042956
770                       23.051703095916398
775                       15.034746070855647
780                       10.836888543805953
785                       8.237843357382859
790                       6.457165382624294
795                       5.150734641090171
800                       4.143342014586498
805                       3.336379427836011
810                       2.6700872013593693
815                       2.1061402513697707
820                       1.6188828931479426
825                       1.1906913010042792
830                       0.8097521690503514
835                       0.47105504641086127
840                       0.20147146328395796
845                       0.24586522328652216
850                       0.49681230615786337
855                       0.7595853379686939
860                       1.0183697984737923
865                       1.2729667392434612
870                       1.5252864532445551
875                       1.7777621924079796
880                       2.0331239132562597
885                       2.294591687834673
890                       2.565301848687175
895                       2.849215602872634
900                       3.1512814027039315
905                       3.477096751633011
910                       3.8341396698990486
915                       4.2322964479718115
920                       4.685065515234607
925                       5.211530081833466
930                       5.839748184336268
935                       6.614725007810368
940                       8.201457825927077
945                       10.777040519883581
950                       14.728094906891307
955                       18.376991402454173
960                       19.389012692788057
965                       33.148055744934716
970                       130.21799387694585
975                       59.22390523579259
980                       23.301197425139886
985                       13.96726323612662
990                       9.634499843582491
995                       7.120025953826335
1000                      5.465770811352685
1005                      4.285483151940469
1010                      3.393772983135592
1015                      2.6906279262013446
1020                      2.1173877517871995
1025                      1.637478598207871
1030                      1.2271743240190909
1035                      0.8711423039309012
1040                      0.5615930677973504
1045                      0.3076302450555067
1050                      0.2078241061736421
1055                      0.35401798122859585
1060                      0.563259706611739
1065                      0.7769031386307244
1070                      0.9874461529449823
1075                      1.1946952098973576
1080                      1.4000180332552907
1085                      1.6052588303198496
1090                      1.8126686133301184
1095                      2.0245397586173506
1100                      2.2433948378495314
1105                      2.472502900154737
1110                      2.715234771171075
1115                      2.97601094427345
1120                      3.2604422540417124
1125                      3.575869656202953
1130                      3.9322012470395995
1135                      4.34326178862178
1140                      4.829499555492695
1145                      5.421926481723404
1150                      6.554341908156559
1155                      8.414434775694472
1160                      11.232836680780137
1165                      14.393933079692447
1170                      14.143215000337158
1175                      21.742635860469893
1180                      50.687031490305586
1185                      108.34140826722611
1190                      25.44452347121676
1195                      13.710635402933544
1200                      9.011679923011982
1205                      6.4690386432818805
1210                      4.865033148847626
1215                      3.7525675929163924
1220                      2.9293582891860703
1225                      2.2907091741918237
1230                      1.7771526002040088
1235                      1.3526931562711684
1240                      0.9949204171879332
1245                      0.6909431454005901
1250                      0.439176831418375
1255                      0.26986488879547704
1260                      0.27538107685784347
1265                      0.4177396263426245
1270                      0.5922235919573221
1275                      0.7699245357775422
1280                      0.945290037424265
1285                      1.1178269745346154
1290                      1.288505656336534
1295                      1.4586192912243274
1300                      1.6297480753448101
1305                      1.8036802359878208
1310                      1.982675185503077
1315                      2.1688134913273336
1320                      2.364676230368035
1325                      2.5734707923070665
1330                      2.7991975081400216
1335                      3.046993263144879
1340                      3.3236519069829833
1345                      3.638440598983202
1350                      4.004880037764968
1355                      4.442513039511338
1360                      5.11015695304591
1365                      6.347092705803362
1370                      8.185044533211519
1375                      10.69513519677946
1380                      12.306246848725758
1385                      13.579763055828417
1390                      22.285379241580276
1395                      71.14560857918039
1400                      49.44297479384035
1405                      17.5006908301957
1410                      10.132609831464448
1415                      6.823936419655282
1420                      4.937996426428156
1425                      3.7117496155525487
1430                      2.844608849170716
1435                      2.1946191391791077
1440                      1.686312087926865
1445                      1.2763378640350749
1450                      0.9390187981434962
1455                      0.6606853925375642
1460                      0.44111413251719733
1465                      0.3077982067112611
1470                      0.31281772145913717
1475                      0.42241659864215825
1480                      0.5654588601287762
1485                      0.7147746016375018
1490                      0.8631465075077734
1495                      1.0090486082620702
1500                      1.1527106750566172
1505                      1.2949888773322686
1510                      1.4370053330201955
1515                      1.580036467524745
1520                      1.725496551992096
1525                      1.8752560479014737
1530                      2.0310728484065073
1535                      2.1949500003398974
1540                      2.3694770045947298
1545                      2.557873197987997
1550                      2.764253925645016
1555                      2.99403061554807
1560                      3.254577112940812
1565                      3.5569491876419526
1570                      3.9154479702291876
1575                      4.522171470503944
1580                      5.5163831662937985
1585                      6.978998624751252
1590                      8.914777626925666
1595                      10.250088649127676
1600                      10.825766032359816
1605                      16.491122241886305
1610                      38.10931942345932
1615                      78.53254606683902
1620                      18.58182619311715
1625                      9.900451111554437
1630                      6.417732556052235
1635                      4.533575470879011
1640                      3.3470425876969427
1645                      2.5266542378872194
1650                      1.9226129713894458
1655                      1.4579098826033037
1660                      1.0898352442740773
1665                      0.7947246999393864
1670                      0.563050500103764
1675                      0.40242961473097644
1680                      0.34090086109636114
1685                      0.38500924785754376
1690                      0.48751299089051225
1695                      0.6093409985079934
1700                      0.7352104077140563
1705                      0.8602180008377455
1710                      0.983096917152983
1715                      1.1039139243405145
1720                      1.2232689385629643
1725                      1.342001595666494
1730                      1.4610860565251242
1735                      1.5816043340625405
1740                      1.7047579925409742
1745                      1.8322381755125634
1750                      1.9655032154034628
1755                      2.106315133475329
1760                      2.2569763325509262
1765                      2.4203747771702804
1770                      2.600231345488933
1775                      2.801582611850546
1780                      3.0316660050494795
1785                      3.299529005674568
1790                      3.72451484566646
1795                      4.343356900553794
1800                      5.320287829265981
1805                      6.662181812907882
1810                      8.11628599615853
1815                      8.430801847966244
1820                      10.139069218714717
1825                      16.033407453440425
1830                      44.06260983972533
1835                      43.96959107543496
1840                      13.841932696553824
1845                      7.724415352521137
1850                      5.070318632517947
1855                      3.585914907437348
1860                      2.634399665640993
1865                      1.9705349330460808
1870                      1.4807987508238383
1875                      1.1066612155482907
1880                      0.8171138429620926
1885                      0.5987247142207898
1890                      0.4537450153479135
1895                      0.3952602137088443
1900                      0.4205190107454975
1905                      0.49717121578506046
1910                      0.5950795540588232
1915                      0.6994177636971993
1920                      0.804343279072684
1925                      0.9078302792679017
1930                      1.0094241693995587
1935                      1.109342861000412
1940                      1.2081103709470014
1945                      1.3064059367119567
1950                      1.405006452377556
1955                      1.504773247574377
1960                      1.6066632090039044
1965                      1.711852239328426
1970                      1.8219211321756552
1975                      1.938026125055284
1980                      2.0619871111561774
1985                      2.196074957862986
1990                      2.3431970706943446
1995                      2.5076313772333743
2000                      2.6943063667987954
