% Model:              adattamento a studio.mph
% Version:            COMSOL 5.6.0.341
% Date:               Jun 6 2021, 14:35
% Dimension:          1
% Nodes:              381
% Expressions:        1
% Description:        Grafico tabella
%                         
100                       81.12114362592744
105                       97.82469737185325
110                       126.19764070611434
115                       184.66200050453304
120                       370.84942023158504
125                       1186.3203424409805
130                       260.00521683243005
135                       132.81608943042914
140                       85.82426267320102
145                       61.465308333592944
150                       46.578513154528856
155                       36.541328077588545
160                       29.314802718158415
165                       23.860455433114105
170                       19.59379157319898
175                       16.160642810030897
180                       13.333829066636696
185                       10.96084918972188
190                       8.93543963216127
195                       7.181192183789769
200                       5.641657094997026
205                       4.2741194585651545
210                       3.0455509672840693
215                       1.9299129568710411
220                       0.9064676459646194
225                       0.06190020936628822
230                       0.9345121584656513
235                       1.7759711892209191
240                       2.5812582318510384
245                       3.360175024236343
250                       4.1221089741482295
255                       4.876248270910365
260                       5.63192582363993
265                       6.399011261738204
270                       7.188376336117818
275                       8.012482768016692
280                       8.886167488623508
285                       9.827742740286729
290                       10.86060317243325
295                       12.016864810473445
300                       13.338849690241286
305                       15.092592634289153
310                       18.05037972917676
315                       21.887879259192005
320                       26.587233581556852
325                       31.044877007052772
330                       34.12165648555121
335                       41.84889001982518
340                       60.5747370514761
345                       112.39636777354856
350                       809.072407148376
355                       130.59358119033544
360                       60.18155382500148
365                       38.07809663080921
370                       27.226386460294545
375                       20.7459377331714
380                       16.41589174329446
385                       13.301899581022134
390                       10.942340435745237
395                       9.082833356045498
400                       7.571588467869277
405                       6.312346529273414
410                       5.2410403961046965
415                       4.313308635907111
420                       3.4973976476792896
425                       2.7699233995822232
430                       2.1132416225295807
435                       1.5137889280759147
440                       0.9611580030143771
445                       0.44894602019571456
450                       0.09846354979062556
455                       0.5165243264387991
460                       0.9574978374644518
465                       1.3869708366704543
470                       1.8077904642621205
475                       2.2238533800327582
480                       2.639246103794807
485                       3.058244876187754
490                       3.4854484907035443
495                       3.9259690028736047
500                       4.385682191710815
505                       4.871562282800057
510                       5.392144265944739
515                       5.958184549165841
520                       6.583637334932901
525                       7.287148303080218
530                       8.095087701025669
535                       9.044622658070544
540                       10.189933758694579
545                       12.075511178096688
550                       15.123612858231937
555                       19.242738585140454
560                       23.556943335223128
565                       26.007289685841243
570                       37.30526970153283
575                       69.63852484091422
580                       562.4937317605903
585                       79.48367453488788
590                       36.73953100844713
595                       23.26109040561126
600                       16.62429558243165
605                       12.650340574389109
610                       9.987714151567136
615                       8.067156839218741
620                       6.606753534340715
625                       5.451342224442203
630                       4.5082868424805085
635                       3.718819638458276
640                       3.0438220031369627
645                       2.4562192812853207
650                       1.9366709450219644
655                       1.4710371723794347
660                       1.0489404646008136
665                       0.663459303942383
670                       0.31585702877580923
675                       0.14066753189053996
680                       0.3982229202483472
685                       0.6981978760041521
690                       0.9938883794496359
695                       1.2841352819123653
700                       1.5708067522732498
705                       1.8563253143456344
710                       2.1433258093187684
715                       2.434641872788948
720                       2.733383077732491
725                       3.043059785306172
730                       3.3677548711808623
735                       3.7123580691964073
740                       4.082892844120055
745                       4.486985619555693
750                       4.934560519260456
755                       5.4389025770371635
760                       6.0193585779859795
765                       6.70151526419959
770                       7.524418018231115
775                       8.772351070290357
780                       10.953184642835646
785                       13.967768134216346
790                       17.369798068651974
795                       19.745652901317005
800                       26.785127947217337
805                       49.177110480562106
810                       341.18188922167525
815                       59.8585725255512
820                       26.969033149674242
825                       16.88680607367156
830                       11.970208024717486
835                       9.040013311335015
840                       7.081482766820128
845                       5.670329259424257
850                       4.597771953336376
855                       3.7490965197801227
860                       3.0560185418115764
865                       2.475343112984183
870                       1.9784570249453455
875                       1.5456630221270755
880                       1.1631550930456795
885                       0.8216044697791445
890                       0.5167547707114956
895                       0.26111529384488286
900                       0.1903622501030659
905                       0.37656437923868274
910                       0.6038661792228326
915                       0.831517049600089
920                       1.0554853509041724
925                       1.276277964519877
930                       1.4953788905905767
935                       1.714586831582798
940                       1.9358776907289796
945                       2.1614086165162405
950                       2.3935780536632363
955                       2.635122561030233
960                       2.889252202174633
965                       3.159837549245866
970                       3.4516725495470375
975                       3.770853809438662
980                       4.125355915535894
985                       4.526587764384663
990                       4.988888596326009
995                       5.533572410982254
1000                      6.1924049635466965
1005                      7.3539392261794925
1010                      9.150336937229078
1015                      11.542361080530013
1020                      14.208513812097413
1025                      15.502809389320308
1030                      22.043539065659665
1035                      41.480862207978454
1040                      376.83426558734664
1045                      43.601290782575425
1050                      20.311060995013996
1055                      12.795636430250735
1060                      9.062264885949437
1065                      6.815103839240956
1070                      5.303557867427566
1075                      4.209541013478478
1080                      3.375179964897191
1085                      2.7132334449435533
1090                      2.1715970123458317
1095                      1.7173115319231314
1100                      1.3286922457735724
1105                      0.9913299514238983
1110                      0.696521558923729
1115                      0.4432771905456669
1120                      0.25617148219331565
1125                      0.24000330135087522
1130                      0.3852727924581313
1135                      0.567194331836379
1140                      0.7526418058479003
1145                      0.9358773025015005
1150                      1.116378466308858
1155                      1.2949594743955797
1160                      1.4728780832822042
1165                      1.6515950088975844
1170                      1.8327217944988068
1175                      2.018039061139118
1180                      2.2095515942034276
1185                      2.4095732149959415
1190                      2.620845895063458
1195                      2.8467058863850174
1200                      3.0913195065652816
1205                      3.3601491470656275
1210                      3.6605688442935502
1215                      4.001809766821487
1220                      4.397227125050864
1225                      4.8661397874371835
1230                      5.537985641203165
1235                      6.693813103459958
1240                      8.307941683204653
1245                      10.257091057532454
1250                      12.26445331658366
1255                      13.745184697899557
1260                      20.725789004676308
1265                      44.382099869128794
1270                      162.25367690256834
1275                      27.831085418887803
1280                      14.42864926098606
1285                      9.380700654460918
1290                      6.715904664924569
1295                      5.0578274019355876
1300                      3.918807403255793
1305                      3.0823825466371377
1310                      2.437839027759808
1315                      1.922767967003407
1320                      1.499510771869253
1325                      1.1444049432474908
1330                      0.8427779702377194
1335                      0.5876420281230463
1340                      0.38427432672409145
1345                      0.2705819387160432
1350                      0.30403695169872036
1355                      0.4305084961084377
1360                      0.5817059846001752
1365                      0.7365763010406229
1370                      0.8900001847212208
1375                      1.041081294514929
1380                      1.190231283018752
1385                      1.338339783679562
1390                      1.4865108552531336
1395                      1.6359843914273873
1400                      1.7881299141759008
1405                      1.9444761893262932
1410                      2.10676576879664
1415                      2.2770344365717303
1420                      2.4577222400379704
1425                      2.651829449871917
1430                      2.8633880719801508
1435                      3.097302900133949
1440                      3.3599677720808705
1445                      3.660335158343559
1450                      4.011052859867629
1455                      4.453453360383968
1460                      5.22353451454695
1465                      6.351810198770035
1470                      7.802235783882757
1475                      9.463619120825033
1480                      10.47080652572819
1485                      13.18556503543483
1490                      21.31985507757339
1495                      62.14601689249792
1500                      53.89903236244055
1505                      17.831057500325223
1510                      10.162616971159196
1515                      6.817317832346895
1520                      4.931797742741614
1525                      3.713865927477008
1530                      2.8568902809011947
1535                      2.2173785772649617
1540                      1.7194594628055004
1545                      1.3196713855691353
1550                      0.9921676511159885
1555                      0.7225148496381937
1560                      0.5070289899731195
1565                      0.3592956297299557
1570                      0.31518770176045496
1575                      0.37740963813753764
1580                      0.4914140644650528
1585                      0.6206553307328694
1590                      0.7524434292995675
1595                      0.8829899028093589
1600                      1.0114714855521665
1605                      1.1381034727456032
1610                      1.263554970873769
1615                      1.3886975752768294
1620                      1.5145254322336017
1625                      1.6421392942195627
1630                      1.7727628665290678
1635                      1.907780549612603
1640                      2.0487949045399483
1645                      2.1977076696974307
1650                      2.3568967528523714
1655                      2.5294950180631632
1660                      2.7189801328958847
1665                      2.93023428096674
1670                      3.1698521712074657
1675                      3.447015459444213
1680                      3.790964024284042
1685                      4.400993504922381
1690                      5.225821586812845
1695                      6.327696350577211
1700                      7.606829152463882
1705                      8.661792959532576
1710                      9.813996848256753
1715                      14.334655383290503
1720                      28.31791095568027
1725                      186.6544095839308
1730                      21.824098446251973
1735                      10.641865829032664
1740                      6.692989053323007
1745                      4.664334405814822
1750                      3.4223018029515115
1755                      2.579271071300913
1760                      1.9670295905735484
1765                      1.5012715702207111
1770                      1.1359343909184463
1775                      0.8453755530475247
1780                      0.6177394516263992
1785                      0.454831831228858
1790                      0.3732766906666209
1795                      0.38328589652806133
1800                      0.4571031287343765
1805                      0.5585120399606774
1810                      0.6685825646799406
1815                      0.7799763502082916
1820                      0.8901682765055388
1825                      0.9985357970803493
1830                      1.1052537426930513
1835                      1.2108777386356708
1840                      1.316061914146236
1845                      1.42160569372334
1850                      1.5283986327687298
1855                      1.6374298560201783
1860                      1.7498153254015745
1865                      1.8668410813154508
1870                      1.990024910807939
1875                      2.1214803465536014
1880                      2.263284933036577
1885                      2.418331303609833
1890                      2.59041565680674
1895                      2.784625422472186
1900                      3.0079810866620873
1905                      3.304672861680737
1910                      3.7987361528298496
1915                      4.44084197132723
1920                      5.299328117867213
1925                      6.291620386159377
1930                      7.1540300135475645
1935                      7.786461271154547
1940                      10.81436264134845
1945                      18.717231809808233
1950                      90.4647613993442
1955                      25.37364576335004
1960                      10.482680291737749
1965                      6.22062488889371
1970                      4.194722299506057
1975                      3.005982056742294
1980                      2.2219392488146843
1985                      1.6656474727382322
1990                      1.252276557482336
1995                      0.9378030318680808
2000                      0.7002567612968799
