% Model:              adattamento a studio.mph
% Version:            COMSOL 5.6.0.341
% Date:               Jun 6 2021, 14:00
% Dimension:          1
% Nodes:              381
% Expressions:        1
% Description:        Grafico tabella
%                         
100                       104.89590804505171
105                       139.0411439068224
110                       215.60178359561598
115                       527.8951229119227
120                       590.3793934574164
125                       198.4383671484817
130                       112.25660879822583
135                       75.2083368660926
140                       54.74297289014568
145                       41.83465068824213
150                       32.89114512070649
155                       26.33422526702995
160                       21.319855226424185
165                       17.357137616547533
170                       14.14151972163847
175                       11.47412087376409
180                       9.219520576957992
185                       7.282223579402591
190                       5.592832966879721
195                       4.099561860326643
200                       2.762827287456536
205                       1.551730731733378
210                       0.4424537281073693
215                       0.5911853909023724
220                       1.557328050463022
225                       2.4756769774097376
230                       3.3588512947994755
235                       4.2189927446962425
240                       5.068016170611925
245                       5.918437588524554
250                       6.782299644980733
255                       7.673529446313309
260                       8.60931975525884
265                       9.608408950578376
270                       10.695433166523998
275                       11.902669866160004
280                       13.274072996345827
285                       15.230843887600964
290                       18.602719047292446
295                       23.360242612531533
300                       30.14562346443144
305                       38.363104426398955
310                       42.23481100040327
315                       42.87166875994602
320                       62.8698237569049
325                       121.52474798536595
330                       986.5883525434602
335                       118.32073013609397
340                       57.065946424095955
345                       36.60410896684967
350                       26.278461974950122
355                       20.019536672050535
360                       15.799374704481288
365                       12.74454061894364
370                       10.417546960186675
375                       8.575113002764457
380                       7.071112459733685
385                       5.812394104856025
390                       4.736680801601467
395                       3.8006680039299416
400                       2.9732252161899333
405                       2.231326532210211
410                       1.5575480842603884
415                       0.9386689288944429
420                       0.36718090023437505
425                       0.20250018277409756
430                       0.7065323915605786
435                       1.2013457427613683
440                       1.6835125827345196
445                       2.157842345205644
450                       2.6296028132286855
455                       3.1042833576926294
460                       3.587869494854042
465                       4.08725600996911
470                       4.609710962130814
475                       5.164327323600542
480                       5.763021992913363
485                       6.4200642516298005
490                       7.154760287662297
495                       7.993816198369993
500                       8.97537748801262
505                       10.156262061802531
510                       12.04227901472664
515                       15.515868832022875
520                       20.99090885142437
525                       28.593684194306128
530                       31.378856495716366
535                       38.92006518454819
540                       76.62042253763907
545                       734.0750895273577
550                       70.20880499770223
555                       34.34817967126265
560                       22.110505607227115
565                       15.881905962156075
570                       12.088815739020424
575                       9.51927334853715
580                       7.65023889386976
585                       6.2192096459661705
590                       5.079957912154123
595                       4.144522184553542
600                       3.356761098602018
605                       2.6791103882386196
610                       2.085457211798494
615                       1.5571076181834542
620                       1.0805197280332683
625                       0.6466633353598465
630                       0.2588991425080022
635                       0.19672324117644052
640                       0.530869617456179
645                       0.8733134553346991
650                       1.2087973557329004
655                       1.5390156985180776
660                       1.8671110866664347
665                       2.1965836467634756
670                       2.5312100979272047
675                       2.8755395629745055
680                       3.234082839092241
685                       3.612468766398307
690                       4.01796742619744
695                       4.459200015388955
700                       4.947488152967144
705                       5.498246965127553
710                       6.13298814008302
715                       6.882888871699923
720                       7.795152366991908
725                       9.260215159005611
730                       12.029864341940748
735                       16.45659572472365
740                       22.29076342050668
745                       22.98775974010579
750                       33.623042408524476
755                       82.86257999635173
760                       142.86494474721
765                       37.567056359247445
770                       20.815236132540857
775                       13.95008228199658
780                       10.194526122449533
785                       7.810100299089087
790                       6.149325235084275
795                       4.916488503576365
800                       3.9573948928839737
805                       3.183748338546241
810                       2.5413318088152193
815                       1.9950219397540825
820                       1.52113768383865
825                       1.1033903534207543
830                       0.7311490303198368
835                       0.4020388020541096
840                       0.17000255836785874
845                       0.29849991030690326
850                       0.5571992742955106
855                       0.8200065789520583
860                       1.0783339532144032
865                       1.3328182986887287
870                       1.585559977850057
875                       1.8390732442290283
880                       2.0962301377782637
885                       2.3602233353356588
890                       2.634369174562871
895                       2.9228972254332977
900                       3.2308709074266497
905                       3.564323702656633
910                       3.9312727902143356
915                       4.342402475934444
920                       4.812426148408275
925                       5.362343857547455
930                       6.02368618001791
935                       6.898465489030975
940                       8.752855814863116
945                       11.649303696186967
950                       15.902053951459079
955                       18.518000731673794
960                       21.670941381769783
965                       40.89214576931667
970                       388.335655307207
975                       42.84614591677738
980                       20.0099914757105
985                       12.581204895410274
990                       8.872378598258805
995                       6.635517932658341
1000                      5.128129813579595
1005                      4.034686923428345
1010                      3.198467827916521
1015                      2.532862986266047
1020                      1.9861682574724775
1025                      1.5257411647323138
1030                      1.1302946920729766
1035                      0.7863399209502417
1040                      0.4886762832549285
1045                      0.2576675522040368
1050                      0.23001241008363613
1055                      0.40757897413119637
1060                      0.6202220983555364
1065                      0.833622583033569
1070                      1.043556733171681
1075                      1.2504746803607198
1080                      1.4559270402830444
1085                      1.6618371317783829
1090                      1.8706001220192892
1095                      2.0844408266048737
1100                      2.306121426745457
1105                      2.538928359402438
1110                      2.78649575803303
1115                      3.053537798180082
1120                      3.346088029153206
1125                      3.672107401320048
1130                      4.042436887729163
1135                      4.472351498322894
1140                      4.985036935004864
1145                      5.615089907278893
1150                      6.997675739957036
1155                      9.094060858295755
1160                      12.185495176900748
1165                      14.851291869966154
1170                      15.648729673689001
1175                      25.756446201072887
1180                      81.95148362423647
1185                      58.702633368806474
1190                      20.737139362783967
1195                      12.062064221174875
1200                      8.176972545589074
1205                      5.963807342351201
1210                      4.524478284122694
1215                      3.50578000014401
1220                      2.7409214963217865
1225                      2.1410222629942197
1230                      1.6545548125460972
1235                      1.2499391768633503
1240                      0.9075816517601437
1245                      0.6171278453129215
1250                      0.3820682712979447
1255                      0.25036968199253384
1260                      0.30656050754428144
1265                      0.46406242966318834
1270                      0.6408246965008824
1275                      0.8182671315826878
1280                      0.9929829552770977
1285                      1.1650506754237753
1290                      1.3355858738251072
1295                      1.5059704517765018
1300                      1.6778343130074882
1305                      1.8530714041074385
1310                      2.033988761011956
1315                      2.2226774972907255
1320                      2.421912073436751
1325                      2.6350916641807207
1330                      2.8664895077157095
1335                      3.12163658980834
1340                      3.4079080310205003
1345                      3.7354524222184255
1350                      4.119482287342581
1355                      4.581307830828547
1360                      5.4059002522815325
1365                      6.7821367110024475
1370                      8.823342436109012
1375                      11.373040426790073
1380                      12.181335533896517
1385                      15.157520220692305
1390                      27.257021364836298
1395                      170.4498430780575
1400                      33.69166379115315
1405                      14.770430355873714
1410                      9.028974023970115
1415                      6.231151151326792
1420                      4.5672398259751
1425                      3.4567401109309066
1430                      2.657409302581954
1435                      2.050555160497735
1440                      1.5714997650293168
1445                      1.1825566661837004
1450                      0.8615209277761819
1455                      0.597741100033935
1460                      0.3961122916499721
1465                      0.29450677191764374
1470                      0.3344569603621712
1475                      0.4576549920471711
1480                      0.6037472416935536
1485                      0.7532233600849474
1490                      0.9010624586717072
1495                      1.0463911303147444
1500                      1.1896623219891447
1505                      1.3318206035063789
1510                      1.4740328487345968
1515                      1.6176096542386782
1520                      1.7640033280075553
1525                      1.9152621017775722
1530                      2.0729877357417825
1535                      2.2393855152372875
1540                      2.417183983160507
1545                      2.609799074021202
1550                      2.821628034686717
1555                      3.0584946980480945
1560                      3.328593210495068
1565                      3.6436018527908316
1570                      4.019538910447227
1575                      4.727051676836833
1580                      5.837677185929833
1585                      7.434398052372782
1590                      9.398795533741952
1595                      10.231784293345848
1600                      11.816121019749072
1605                      19.11302898101451
1610                      57.61438951614427
1615                      45.32203443737025
1620                      15.420369442598632
1625                      8.805491380221683
1630                      5.866076216404239
1635                      4.201460048888129
1640                      3.1245086353230502
1645                      2.366547020464054
1650                      1.8015281100406406
1655                      1.3630996429563784
1660                      1.014092551134668
1665                      0.7344026439480758
1670                      0.5180025253217443
1675                      0.3776504805137128
1680                      0.3427046011140994
1685                      0.4054770906587207
1690                      0.5149448978303396
1695                      0.6385654500279967
1700                      0.7645131305627371
1705                      0.8891026830469909
1710                      1.0115031913887111
1715                      1.1319503243088411
1720                      1.2511160011914588
1725                      1.3698761066862086
1730                      1.4892297733329516
1735                      1.6102839060117096
1740                      1.7342711741152204
1745                      1.8630462082479171
1750                      1.9979087570726561
1755                      2.1408032762391054
1760                      2.2941474822499286
1765                      2.4609922008338594
1770                      2.64529207996666
1775                      2.852576179813885
1780                      3.090341024742587
1785                      3.3685648794037877
1790                      3.85170017807265
1795                      4.537439584625689
1800                      5.591956705342813
1805                      7.0088022363411815
1810                      8.35103603803597
1815                      8.242580560435092
1820                      11.014406414166329
1825                      18.58060006516901
1830                      73.30135205655709
1835                      30.432773567517998
1840                      11.902383288082628
1845                      6.982315160087188
1850                      4.682127765805018
1855                      3.347517250303931
1860                      2.472936321324414
1865                      1.8538891239157207
1870                      1.3928607966563524
1875                      1.03882453632996
1880                      0.7650594570147181
1885                      0.5614956258900532
1890                      0.4335930556297413
1895                      0.39414010915628134
1900                      0.43336010894552285
1905                      0.5164577601268411
1910                      0.6165720396803077
1915                      0.721375297846904
1920                      0.8261308146057679
1925                      0.929265122748326
1930                      1.0305138855076004
1935                      1.1301793102106628
1940                      1.2288259093513063
1945                      1.3271558499312943
1950                      1.425963391701197
1955                      1.5261278386905688
1960                      1.6286285077227567
1965                      1.7347744013717439
1970                      1.8460019025202976
1975                      1.963611050818397
1980                      2.089501937608323
1985                      2.2260578154229274
1990                      2.3763576813437948
1995                      2.545001588816088
2000                      2.7370809169442674
