% Model:              adattamento a studio.mph
% Version:            COMSOL 5.6.0.341
% Date:               Jun 6 2021, 14:54
% Dimension:          1
% Nodes:              381
% Expressions:        1
% Description:        Grafico tabella
%                         
100                       102.89165512571321
105                       134.86412115103556
110                       205.08061133037668
115                       459.2314193759341
120                       741.8629848663753
125                       221.2090586312147
130                       120.36920821099064
135                       80.34331592056337
140                       58.04509563248354
145                       44.020406271430616
150                       34.43045190833139
155                       27.470757837185143
160                       22.191007568283823
165                       18.045698389542135
170                       14.700112094345142
175                       11.937695404995374
180                       9.612164726410251
185                       7.621077706344589
190                       5.890446874609087
195                       4.365369231360887
200                       3.004098789456801
205                       1.7741948327189316
210                       0.6503006361509498
215                       0.39366266716918147
220                       1.3659056941566274
225                       2.2879231445502026
230                       3.17194959773363
235                       4.030160329318931
240                       4.874238077956974
245                       5.715833101447437
250                       6.567095268054256
255                       7.443142456905587
260                       8.360802588188118
265                       9.336593706791989
270                       10.3966991833412
275                       11.57038152901271
280                       12.899199111365
285                       14.439677552903309
290                       17.05459642605427
295                       20.66490404998961
300                       25.308593160689757
305                       30.580685873742052
310                       36.11028255754016
315                       40.09658529896868
320                       57.07951566162379
325                       100.74959038223523
330                       456.78198265202985
335                       155.26340351182313
340                       66.10742849436159
345                       40.543489257027595
350                       28.429554118052366
355                       21.360370713356158
360                       16.708388220212875
365                       13.397495989264343
370                       10.90677204770762
375                       8.953606449513993
380                       7.37140550275273
385                       6.055530292090801
390                       4.936859468425594
395                       3.9678084329444663
400                       3.1144598602832647
405                       2.3519080075585848
410                       1.6614125070227859
415                       1.0287444866650928
420                       0.4447198619888825
425                       0.1417879668638733
430                       0.6451440909931572
435                       1.146247488759314
440                       1.6339669184428658
445                       2.1130778389382474
450                       2.588958048545776
455                       3.0672086175156177
460                       3.553807698688446
465                       4.055382536455923
470                       4.579575344998837
475                       5.13553982746106
480                       5.736804995557093
485                       6.397815437577963
490                       7.138275362779327
495                       7.988621236091138
500                       8.987427061607457
505                       10.193945808586468
510                       11.906488692136135
515                       15.050708724173624
520                       19.54276764442626
525                       24.89934540858717
530                       28.734922944272707
535                       41.481250219818435
540                       88.17671215168721
545                       406.1254835675696
550                       62.22593854075982
555                       32.20324146243204
560                       21.008989143458347
565                       15.17297947474741
570                       11.572105844348028
575                       9.111963706087234
580                       7.311435808306802
585                       5.92613825995044
590                       4.818768621608399
595                       3.9061982903939247
600                       3.1350966308659713
605                       2.4696297180608355
610                       1.8848095258139368
615                       1.3627463121353292
620                       0.8907024458240757
625                       0.4619692834259967
630                       0.128402657365179
635                       0.36607314917169875
640                       0.7213773032284161
645                       1.0710708935833073
650                       1.4141004749884933
655                       1.753525962421458
660                       2.0930385709859407
665                       2.436636030515578
670                       2.7886988887764206
675                       3.1541876307348176
680                       3.5389304017405716
685                       3.950028160413116
690                       4.3983171588390615
695                       4.8949963141640875
700                       5.456670628205413
705                       6.108500131641847
710                       6.882052885756341
715                       7.828980689657355
720                       9.202215936543581
725                       11.79147765261564
730                       15.637038215404143
735                       20.099071559040468
740                       22.95670673681716
745                       38.44844361825735
750                       125.49507096174646
755                       87.55736288288897
760                       31.685138807583375
765                       18.504406978773986
770                       12.641263387732986
775                       9.312454119170607
780                       7.151125839484122
785                       5.622289310801153
790                       4.474012535545202
795                       3.572145766341243
800                       2.8386840872451296
805                       2.225172560415723
810                       1.6999679646556982
815                       1.2417172640749903
820                       0.836182637695847
825                       0.47684814363315564
830                       0.19393644761109277
835                       0.26585315330648157
840                       0.5360314102794507
845                       0.8138713797449179
850                       1.0868105431600916
855                       1.3554808352514365
860                       1.6223083967356007
865                       1.8901935465531288
870                       2.1623267183779684
875                       2.4422512065377058
880                       2.7340244270921095
885                       3.042460095878255
890                       3.3742137980011004
895                       3.737611787729338
900                       4.141925322049277
905                       4.603600474883113
910                       5.141000122281743
915                       5.783395859113529
920                       6.576606655276878
925                       7.94426640978426
930                       10.235910897606695
935                       13.52794126471527
940                       16.838145999569374
945                       20.340811824755324
950                       36.894079954532025
955                       217.86353164704528
960                       48.1268160336947
965                       21.22249624562249
970                       12.979138677482073
975                       9.015577145856719
980                       6.672649466735555
985                       5.11285395195569
990                       3.990205344956549
995                       3.136055087374124
1000                      2.4584500601780883
1005                      1.903061218247682
1010                      1.435904089408742
1015                      1.0351165072424153
1020                      0.687577177243951
1025                      0.39223479699769376
1030                      0.2060919026948864
1035                      0.30204080183392606
1040                      0.5185909043630316
1045                      0.7453231276162335
1050                      0.9689215368609683
1055                      1.1886134192667959
1060                      1.405874099118635
1065                      1.6227845596551946
1070                      1.8416962162775266
1075                      2.065202280086312
1080                      2.296215729688778
1085                      2.53811062566582
1090                      2.795431435005085
1095                      3.0739595924988294
1100                      3.3794976445261353
1105                      3.722251456391619
1110                      4.1138800434968275
1115                      4.571069596727391
1120                      5.119415425727267
1125                      5.801155193945678
1130                      7.203128168571479
1135                      9.259769278338954
1140                      11.859596481791812
1145                      14.081862614982198
1150                      17.818455586698136
1155                      32.7146305791386
1160                      215.99459725147628
1165                      38.93247138924662
1170                      17.543285088803668
1175                      10.761000386056686
1180                      7.462941362784164
1185                      5.503163565473309
1190                      4.1949315823211855
1195                      3.252171816258821
1200                      2.534770812591233
1205                      1.9661762229533226
1210                      1.501258674995163
1215                      1.1121919809892538
1220                      0.7822051386720206
1225                      0.5050114043009986
1230                      0.29843394920949434
1235                      0.25288926301757686
1240                      0.3833350761386177
1245                      0.5625701347898155
1250                      0.7474079725072926
1255                      0.9299467845538191
1260                      1.109305262177665
1265                      1.2863550609165535
1270                      1.4625250655800897
1275                      1.6394870507890213
1280                      1.8190911044482965
1285                      2.0033930029543616
1290                      2.194730315237255
1295                      2.3961885630070645
1300                      2.611803349516277
1305                      2.8451047654187067
1310                      3.1021881668406923
1315                      3.3908698119677894
1320                      3.7202634020737877
1325                      4.104553287585849
1330                      4.564663650113841
1335                      5.260781210657854
1340                      6.45688419665691
1345                      8.180417408135485
1350                      10.157966806876427
1355                      11.741347118617732
1360                      14.700810652544604
1365                      25.319943281817267
1370                      103.37778862073424
1375                      41.77375542502487
1380                      16.806229266090444
1385                      9.949086961122509
1390                      6.765613570355109
1395                      4.922004188361639
1400                      3.71198571301393
1405                      2.850937686641676
1410                      2.2025618080366223
1415                      1.6937070620549475
1420                      1.2820611649679874
1425                      0.9424230296231274
1430                      0.6613235873624682
1435                      0.43868603620508484
1440                      0.30318932618305855
1445                      0.3104213162401055
1450                      0.42427403133197805
1455                      0.5708825327629117
1460                      0.723169225418351
1465                      0.8741964537949248
1470                      1.0225702107660888
1475                      1.1685890899004534
1480                      1.3131491277379903
1485                      1.4573979716524643
1490                      1.6026295983188708
1495                      1.7502706448207737
1500                      1.9019102939394679
1505                      2.0593591563305402
1510                      2.2258239557349913
1515                      2.403096036197044
1520                      2.594569779668607
1525                      2.8052434463700946
1530                      3.0402576087578344
1535                      3.306749135317002
1540                      3.6151707476913493
1545                      3.980664498402911
1550                      4.586307483431897
1555                      5.4790294420733545
1560                      6.786716295836185
1565                      8.330220971942747
1570                      9.681910377346377
1575                      10.971712864431604
1580                      16.59706831196975
1585                      36.17307331849456
1590                      107.21349391420097
1595                      20.875699039776716
1600                      10.85090347624207
1605                      6.950781923559056
1610                      4.885632200396314
1615                      3.602066843971429
1620                      2.722301306452232
1625                      2.078399670416302
1630                      1.5848795719434001
1635                      1.1943864764446244
1640                      0.8800237190103293
1645                      0.6287605298042713
1650                      0.44241767951835803
1655                      0.3444601537752092
1660                      0.3581070311450064
1665                      0.4487601989359268
1670                      0.5683144071379407
1675                      0.695081433342814
1680                      0.8218884302673006
1685                      0.9466831985543332
1690                      1.0692339236199473
1695                      1.1900112127801892
1700                      1.309785228400843
1705                      1.4294777877814102
1710                      1.5501160506468676
1715                      1.6728325939976096
1720                      1.7988915611000242
1725                      1.9303515847196486
1730                      2.068781041591129
1735                      2.2161233185521767
1740                      2.3750517468988903
1745                      2.549538755501288
1750                      2.743355164618078
1755                      2.962183313542923
1760                      3.214063000363535
1765                      3.510497296242017
1770                      4.0537553895551
1775                      4.766965501888263
1780                      5.796488699982731
1785                      6.981807598429799
1790                      8.025930316121114
1795                      8.718306467478584
1800                      12.33771353179279
1805                      22.23393178843657
1810                      130.6648035081123
1815                      25.687786609406565
1820                      11.413012716934311
1825                      6.880653049167177
1830                      4.675945529069945
1835                      3.371396089412068
1840                      2.506434901947986
1845                      1.8893079249834757
1850                      1.4268742541918564
1855                      1.0696766886316467
1860                      0.7913020071441557
1865                      0.581051701814488
1870                      0.44310455845360114
1875                      0.3914154095139974
1880                      0.4216945521382408
1885                      0.5008966213692883
1890                      0.5999531504696217
1895                      0.7048810218505234
1900                      0.8102017505332421
1905                      0.9140243495748073
1910                      1.0159379909367126
1915                      1.1161682061483325
1920                      1.2152314600415752
1925                      1.3137921531350367
1930                      1.4126076476046723
1935                      1.512515246542327
1940                      1.6144421801509865
1945                      1.7199686186455405
1950                      1.8301932213191319
1955                      1.9464369289456669
1960                      2.070563475511438
1965                      2.2051392900540296
1970                      2.3524927845067953
1975                      2.516631142819424
1980                      2.7023251506769386
1985                      2.9164274896730684
1990                      3.268188690445477
1995                      3.696170933800934
2000                      4.378987884746166
