% Model:              adattamento a studio.mph
% Version:            COMSOL 5.6.0.341
% Date:               Jun 6 2021, 15:41
% Dimension:          1
% Nodes:              381
% Expressions:        1
% Description:        Grafico tabella
%                         
100                       117.93045223818484
105                       165.63741814446664
110                       297.4559501606614
115                       1297.2316255981152
120                       321.91979270836174
125                       147.55776001604968
130                       91.47414929383967
135                       63.974100670797974
140                       47.66595972745315
145                       36.87570379207752
150                       29.20575999425398
155                       23.469140325634005
160                       19.011122789539503
165                       15.440924694135377
170                       12.510770569409157
175                       10.055829127738056
180                       7.962042215373804
185                       6.14781656559064
190                       4.55307151681108
195                       3.132408513315952
200                       1.8507168046959699
205                       0.6805746435794041
210                       0.40521857093914
215                       1.4169883054295214
220                       2.376806164768627
225                       3.2980086632739516
230                       4.19376452160955
235                       5.076782132467389
240                       5.959847544428513
245                       6.8564466453111255
250                       7.781505231948075
255                       8.752337161697131
260                       9.789943112160392
265                       10.920892169392205
270                       12.180983068316129
275                       13.619129846530084
280                       15.51873064676707
285                       18.746305056342415
290                       22.95456736933741
295                       28.051231602605323
300                       32.53526760355257
305                       35.18016672355464
310                       46.606142283671
315                       71.46152680115406
320                       159.73057513350915
325                       462.8049101837113
330                       93.53171103029842
335                       50.01381323403773
340                       33.22026145589898
345                       24.269451187113873
350                       18.674248935244794
355                       14.822121791099883
360                       11.99095868756223
365                       9.808889108740559
370                       8.064767664690313
375                       6.629684049909162
380                       5.420365619627677
385                       4.380516329155576
390                       3.470610198894948
395                       2.6619870102629646
400                       1.9332888127276062
405                       1.2682979582614415
410                       0.6551418367039957
415                       0.10955857901882893
420                       0.4770356159557193
425                       0.9945513216806086
430                       1.4976017727468771
435                       1.990392173365271
440                       2.4784425453664944
445                       2.9675143273486326
450                       3.4637075258372434
455                       3.9737235010479357
460                       4.505224921439017
465                       5.067321519303016
470                       5.671250067677569
475                       6.331366151126896
480                       7.066650062801366
485                       7.903088664351405
490                       8.878697305022348
495                       10.048311978554818
500                       11.549060368692938
505                       14.532335812793487
510                       18.7634968491672
515                       23.749818326667295
520                       27.39494454499249
525                       37.32200397881569
530                       70.0187996942132
535                       613.1594921178499
540                       78.0815065404089
545                       36.217267210811286
550                       22.90945310687221
555                       16.330076579519297
560                       12.378008703632657
565                       9.721380884179963
570                       7.798502756083261
575                       6.331174093066481
580                       5.165786989526939
585                       4.210522344649154
590                       3.4070521482919647
595                       2.7164891496281736
600                       2.111874404135238
605                       1.5739442036304303
610                       1.0887508153633765
615                       0.6469571797292618
620                       0.25205385397593155
625                       0.20623765044041184
630                       0.5502563792421652
635                       0.8999262872157346
640                       1.2424276860354604
645                       1.5797831991027964
650                       1.915316727442175
655                       2.252695379408462
660                       2.5958802122138227
665                       2.949257536164224
670                       3.3178547773615144
675                       3.707642838694608
680                       4.125961313439158
685                       4.582135048466047
690                       5.08840072550519
695                       5.661353293182135
700                       6.324991589160758
705                       7.113531025462217
710                       8.07882943553325
715                       9.6230026851638
720                       12.324947695660523
725                       16.074161191132085
730                       20.061636950226248
735                       23.296367876588217
740                       38.41098577938699
745                       117.04293746043464
750                       96.19720286475035
755                       32.94361619294969
760                       19.202021340991674
765                       13.160162238238861
770                       9.737500909490448
775                       7.5169098267622445
780                       5.9471725815852
785                       4.769209262583665
790                       3.8451317115159482
795                       3.0947842974630273
800                       2.4683613710921013
805                       1.9331798531134816
810                       1.4671244117954554
815                       1.0549399991102246
820                       0.6868635647311319
825                       0.36253034542207613
830                       0.160705816644561
835                       0.33191200582403074
840                       0.595305769668082
845                       0.8597474748750209
850                       1.1195502923133063
855                       1.3757609117606755
860                       1.630583143982857
865                       1.8865775562041265
870                       2.146547117063977
875                       2.4135929061997747
880                       2.691243483359428
885                       2.98364584789133
890                       3.295834833133293
895                       3.6341192112255207
900                       4.006651892876622
905                       4.424301532459049
910                       4.902782609941709
915                       5.463151726489435
920                       6.1372198492167795
925                       7.003127489807485
930                       8.748324475628683
935                       11.242413661457963
940                       14.227644011235395
945                       16.736234228717386
950                       22.068180730715444
955                       41.47112063709946
960                       387.7376138391703
965                       44.13394847360575
970                       20.459050707230578
975                       12.85421272609413
980                       9.078484748032388
985                       6.80412406612396
990                       5.271964550407705
995                       4.16069574695322
1000                      3.310957511429772
1005                      2.6347200750631066
1010                      2.0794197630926803
1015                      1.611827873108636
1020                      1.2101629743543607
1025                      0.8602730915253192
1030                      0.5550886828343438
1035                      0.3040037013533279
1040                      0.20546287185905612
1045                      0.35125422567379966
1050                      0.5595086095863666
1055                      0.7722285420220205
1060                      0.9819732852167655
1065                      1.188509149514284
1070                      1.3931452835808944
1075                      1.5976617774492858
1080                      1.8040687677341425
1085                      2.0145835988613943
1090                      2.2316893129234465
1095                      2.4582422008542104
1100                      2.697628298258078
1105                      2.9539850947359554
1110                      3.2325207449450954
1115                      3.539986800707543
1120                      3.885977777777854
1125                      4.282636208231171
1130                      4.747753101194108
1135                      5.307873872235068
1140                      6.174232366351114
1145                      7.6731096372188095
1150                      9.731265883533663
1155                      12.13786610897199
1160                      13.67904475232275
1165                      18.527937715706578
1170                      34.44921405433513
1175                      292.2639146886075
1180                      37.39403284369178
1185                      17.11191629560866
1190                      10.666161589894495
1195                      7.479315968186539
1200                      5.564413232256055
1205                      4.276757414711859
1210                      3.344326438865017
1215                      2.632528685305898
1220                      2.067219265700097
1225                      1.604347264615103
1230                      1.2164351552004218
1235                      0.8862822362630596
1240                      0.6049874710675401
1245                      0.37682146631626134
1250                      0.24878893732371568
1255                      0.30255713990836397
1260                      0.45615959767418873
1265                      0.6295395750477348
1270                      0.8040161981500871
1275                      0.9760159503266591
1280                      1.1454640674271142
1285                      1.3133088149968712
1290                      1.480873570260048
1295                      1.6496759244792263
1300                      1.8213975076092677
1305                      1.9979166036365488
1310                      2.181378620958802
1315                      2.374301749828201
1320                      2.579726767360295
1325                      2.801430483707732
1330                      3.044397159953811
1335                      3.3151992066849894
1340                      3.622191523065444
1345                      3.9774269771686703
1350                      4.398374672617399
1355                      5.001526109521076
1360                      6.017909754002694
1365                      7.47527374453736
1370                      9.243623300021277
1375                      11.077208433297514
1380                      12.483316364513293
1385                      19.071613441116458
1390                      43.17881244784057
1395                      104.51479201979053
1400                      22.513252073711772
1405                      11.94481046067145
1410                      7.794965386370624
1415                      5.563888256187423
1420                      4.1607290951169995
1425                      3.1898371157299374
1430                      2.4731867434580623
1435                      1.919003071473958
1440                      1.4754676836544913
1445                      1.11170196108214
1450                      0.8095133897644115
1455                      0.5611465240396771
1460                      0.37476971711349594
1465                      0.29127392963477133
1470                      0.34250705001553516
1475                      0.4664054438227042
1480                      0.6099347315101648
1485                      0.7562919023644517
1490                      0.9010718076702057
1495                      1.0434886206221154
1500                      1.18396735551356
1505                      1.3233889344710934
1510                      1.4628439080054898
1515                      1.6035581241217662
1520                      1.7468884403243088
1525                      1.8943543572103256
1530                      2.0476955326623036
1535                      2.208955891353664
1540                      2.380602128923175
1545                      2.5658065589398125
1550                      2.7686646787562093
1555                      2.9940654729290066
1560                      3.248898447761962
1565                      3.542727005711018
1570                      3.8892926921106348
1575                      4.453899340851515
1580                      5.281410859080795
1585                      6.4556220846184695
1590                      7.844438486317582
1595                      9.277428264078791
1600                      10.1525026471765
1605                      14.734847428353383
1610                      28.446006073372033
1615                      244.17059057636797
1620                      24.400181129108084
1625                      11.649351642115883
1630                      7.28817358617581
1635                      5.074209668060229
1640                      3.726512164648554
1645                      2.814257041450991
1650                      2.1521344669557263
1655                      1.647627052958293
1660                      1.250009350671369
1665                      0.9303607349700728
1670                      0.6736987762316848
1675                      0.4782994768706388
1680                      0.3611552966477806
1685                      0.3482766859116222
1690                      0.4209217638526105
1695                      0.5312622144420129
1700                      0.6527468508908945
1705                      0.7758383479069039
1710                      0.8975332932927171
1715                      1.017198457169611
1720                      1.1351173110757955
1725                      1.251907528548417
1730                      1.3683995029802627
1735                      1.4855396013524955
1740                      1.6043771621799685
1745                      1.7260813009809344
1750                      1.8519782090644918
1755                      1.9836078621434814
1760                      2.1228042652360433
1765                      2.2720669463454453
1770                      2.4340765285771973
1775                      2.612408378311618
1780                      2.811865550361772
1785                      3.0389796860048146
1790                      3.3029162125828164
1795                      3.7035180970017447
1800                      4.282651903116599
1805                      5.122017677577424
1810                      6.158151638380905
1815                      7.33738415928268
1820                      7.968801714654353
1825                      9.800828524668718
1830                      14.987697779179664
1835                      35.065854534264204
1840                      64.96046331609578
1845                      15.802308770439062
1850                      8.42039935967832
1855                      5.448455409460315
1860                      3.835807333553696
1865                      2.818539035337108
1870                      2.115640733800301
1875                      1.600086407831049
1880                      1.2069877536961349
1885                      0.9013991051442977
1890                      0.6661081825415998
1895                      0.49823875118510835
1900                      0.4078837026197142
1905                      0.4020603652614031
1910                      0.4595617420365604
1915                      0.5479932163595125
1920                      0.6476062426516955
1925                      0.7498586790728028
1930                      0.8514985980169936
1935                      0.9515003592359335
1940                      1.0497907586336332
1945                      1.146724484333262
1950                      1.2429086608198943
1955                      1.3389988255121266
1960                      1.4357439730031192
1965                      1.5339889553838688
1970                      1.6346775465312315
1975                      1.738883309986391
1980                      1.8478552072221024
1985                      1.963332339506933
1990                      2.0869526737683253
1995                      2.2209851803435128
2000                      2.368367148127323
