% Model:              CONO3D.mph
% Version:            COMSOL 5.6.0.341
% Date:               Jun 4 2021, 13:02
% Dimension:          1
% Nodes:              91
% Expressions:        2
% Description:        Grafico tabella
% freq (Hz)               abs((p/1000)/lnsf.v_inst)/(pi*R2^2) (Pa*s/m), ExitNS abs((p/1000)/lnsf.v_inst)/(pi*r1^2) (Pa*s/m), InputNS
100                       10.7797949729995         4.284167714908351
110                       9.91815444265336         5.1641496078542755
120                       9.286930407811504        6.030168272378277
130                       8.815286034231638        6.860225637510026
140                       8.434867409791423        7.612413927485309
150                       8.116201035491562        8.197360127152944
160                       7.821931518715005        8.437976505138025
170                       7.432457532990381        8.055200357230055
180                       7.019247052738652        6.810707093853576
190                       6.44134679065956         4.838781873122082
200                       4.780794957572123        2.7074913996736147
210                       2.9234546237566086       1.044409094549089
220                       1.0388398642987133       0.1906081448344622
230                       0.7610189111041686       0.13051593648445975
240                       1.655960076080046        0.6387629046406531
250                       2.5749889226770932       1.4510213090987474
260                       2.9583774250754993       2.370362280196908
270                       3.2492878861546606       3.285146745745378
280                       3.466723142231817        4.138621250259062
290                       3.6331096511951975       4.895727521353753
300                       3.640049379023918        5.521037327261538
310                       3.6365310064546628       5.966624315409038
320                       3.681910746157987        6.1684539679262045
330                       3.6934026519859153       6.054531125994558
340                       3.6510670126889013       5.573042764108446
350                       3.3416521940748325       4.7381048564501
360                       2.6132997114319867       3.6544848176946574
370                       1.987041154149278        2.4917924582816164
380                       1.445474095047784        1.4363548718856447
390                       0.7583765638251544       0.64460979156396
400                       0.3821988293739585       0.20784477281573913
410                       0.2977463184234894       0.142084258083752
420                       0.4907906816818295       0.39865366689772325
430                       0.7486937640435779       0.8891568191839178
440                       1.0360385075581613       1.5169669103549428
450                       1.3284270333727353       2.199326983992338
460                       1.553623442130829        2.872555198776941
470                       1.714881708494094        3.4866110699408113
480                       1.8489329690453855       3.9976086081358373
490                       1.9637438403967276       4.3628844782015666
500                       2.045907585343428        4.540132970166477
510                       2.114176223339417        4.492228818910622
520                       2.1462495946951368       4.199932867574743
530                       1.7760610429641004       3.6786718142048276
540                       1.454990407398559        2.985803872838935
550                       1.0153192200986287       2.211029789672413
560                       0.6428294245282226       1.4579833146380756
570                       0.40404817251975855      0.8246477256811585
580                       0.2456942754370444       0.3862154947717763
590                       0.1572726821398363       0.18419337355313029
600                       0.16619189144927096      0.2227082197852511
610                       0.24037334780026606      0.47196331247859585
620                       0.33667733976282105      0.87912678285438
630                       0.4483631078360302       1.3826885234026656
640                       0.585394414094359        1.9233650916932226
650                       0.7430090079513358       2.4485127003794394
660                       0.8655688712395448       2.91213817617508
670                       0.9567971649335305       3.273577777483628
680                       1.0580658993994885       3.497525465609555
690                       1.086202617775052        3.555925132277779
700                       1.1282958147015927       3.4332182947735634
710                       1.0719177918401794       3.1337618822612106
720                       0.8549098037635784       2.6869539722546842
730                       0.498374931725074        2.1446415835636627
740                       0.32153981309740554      1.5727060523410645
750                       0.21318936413872747      1.0402108221534576
760                       0.13992133478922322      0.6091486880055592
770                       0.09146041647824697      0.32608308949140224
780                       0.06904735673210687      0.21639878579989616
790                       0.07558838816265938      0.2816711597626283
800                       0.10019045460237185      0.501136714949398
810                       0.13376616015544116      0.8375512194251272
820                       0.17580586857397848      1.2452121763601576
830                       0.2319487902899481       1.6768391653626042
840                       0.3167028033508206       2.0878797856095446
850                       0.39454530867892695      2.4386098098903672
860                       0.45051316262739444      2.6955577217565683
870                       0.5236830908810465       2.832974175160958
880                       0.5071669109212151       2.835022555867534
890                       0.4624759063821469       2.6987617031257662
900                       0.47143975893608486      2.436749223689961
910                       0.325355273106483        2.077223798683843
920                       0.2067335172982731       1.6606625314089716
930                       0.14497806922753695      1.2340512444117826
940                       0.10449942641261263      0.8446182694298023
950                       0.0759678588120644       0.5342363042460857
960                       0.057192798555913846     0.33479020103531193
970                       0.05011742888041077      0.2645914546217966
980                       0.056759316591630075     0.3262540571298629
990                       0.07469926621298881      0.5068202488452735
1000                      0.10162584278624923      0.7804668393224609
