% Model:              adattamento a studio.mph
% Version:            COMSOL 5.6.0.341
% Date:               Jun 5 2021, 23:14
% Dimension:          1
% Nodes:              381
% Expressions:        1
% Description:        Grafico a punti
% X                       Height
100                       3.2014408973944195
105                       3.348227698757527
110                       3.513011553696501
115                       3.6985707108205865
120                       3.9083011961963425
125                       4.1463938118884425
130                       4.418075767055868
135                       4.729946191529145
140                       5.090450955308896
145                       5.5105691965941235
150                       6.0048304114077
155                       6.592863853603665
160                       7.301836142384547
165                       8.170433608049093
170                       9.255665953474717
175                       10.645134805712757
180                       12.480678969673573
185                       15.00795268746435
190                       18.69253786408476
195                       24.536759282018092
200                       35.165645000403366
205                       60.33968369104155
210                       192.32611014479096
215                       174.97932348412013
220                       62.28691332751144
225                       38.68088661395718
230                       28.50418758820371
235                       22.86887345780013
240                       19.314950703740195
245                       16.889501129366888
250                       15.146124114355619
255                       13.848101578133106
260                       12.858441737788887
265                       12.092581447562736
270                       11.49571020667696
275                       11.030963394319222
280                       10.672864025552252
285                       10.403487574661884
290                       10.210126167450031
295                       10.083821737101466
300                       10.018426806468991
305                       10.010000725414555
310                       10.056430294858703
315                       10.157210197297605
320                       10.313347035329167
325                       10.527369732993646
330                       10.803443560793607
335                       11.147598430352792
340                       11.568097215797414
345                       12.075989979917507
350                       12.685929909925258
355                       13.417374549097836
360                       14.296376158299354
365                       15.358305784036457
370                       16.652113342466222
375                       18.247220756246556
380                       20.24514736547279
385                       22.800129795037993
390                       26.158036892365406
395                       30.73577666498678
400                       37.30060937246595
405                       47.43473817319409
410                       65.00458396617813
415                       102.58271095154542
420                       236.38009635518483
425                       646.6739657632571
430                       149.82726028085216
435                       84.68739616296051
440                       59.6244949539813
445                       46.43984851651685
450                       38.357860798508554
455                       32.9346565816035
460                       29.074562929225205
465                       26.213622022801374
470                       24.03234640626467
475                       22.336562100571125
480                       21.00180323750923
485                       19.94495648591304
490                       19.10876523082782
495                       18.45288146223363
500                       17.948465460916832
505                       17.574811795600617
510                       17.317187846997346
515                       17.16543053598651
520                       17.113039356729026
525                       17.156612132350098
530                       17.2955343498347
535                       17.53187417892171
540                       17.870464778053904
545                       18.31918035962461
550                       18.889438178352723
555                       19.596990713291373
560                       20.46311840432521
565                       21.516405638549077
570                       22.795403209995882
575                       24.352691067698053
580                       26.261239990786972
585                       28.624708317442767
590                       31.594801334596717
595                       35.4020333753635
600                       40.41369535151769
605                       47.25185768756067
610                       57.05882795039744
615                       72.18048040073815
620                       98.30033674090278
625                       153.4875964918506
630                       335.9977625033504
635                       678.2317709451737
640                       216.70347818629958
645                       124.41654279805572
650                       87.7022705775057
655                       68.19507051685088
660                       56.181899291046044
665                       48.097681813286485
670                       42.33065805490554
675                       38.04724745256915
680                       34.77375192608878
685                       32.221631448845805
690                       30.20560025372571
695                       28.60172931291985
700                       27.324496872136375
705                       26.313511989305834
710                       25.52548953354041
715                       24.929228909418622
720                       24.50239205023319
725                       24.229407219699144
730                       24.100109882293804
735                       24.10889240445421
740                       24.254229974776756
745                       24.53851147008958
750                       24.96814802708325
755                       25.553969458855338
760                       26.31195766496157
765                       27.264415507992062
770                       28.441741276398776
775                       29.88509260540957
780                       31.65041552826935
785                       33.8146537261629
790                       36.48558199078377
795                       39.81793247316359
800                       44.041004197289496
805                       49.50849409492326
810                       56.794500469095496
815                       66.8943544298829
820                       81.69215047797144
825                       105.21830238715856
830                       147.80450944553755
835                       244.7394563350612
840                       554.9872187589066
845                       436.85113186968914
850                       212.47280490111672
855                       137.18209560066575
860                       101.49954073427581
865                       80.9663270692305
870                       67.73736942261645
875                       58.574581551057975
880                       51.90700591610088
885                       46.88288748620153
890                       43.0015726395345
895                       39.95030061516111
900                       37.524288599028885
905                       35.58446835186097
910                       34.03372280555562
915                       32.80284810640467
920                       31.841924859623703
925                       31.114847866885256
930                       30.595783119056016
935                       30.26685227924624
940                       30.11663612079448
945                       30.139256168754407
950                       30.33389636716693
955                       30.704694821888907
960                       31.26098738386331
965                       32.01793202634345
970                       32.99759600051743
975                       34.23065880285951
980                       35.758991266768405
985                       37.639545983004055
990                       39.95029537646843
995                       42.799497085173236
1000                      46.3405936467147
1005                      50.79709847386885
1010                      56.50613759734368
1015                      63.999086942230605
1020                      74.16177726757165
1025                      88.58220326657654
1030                      110.39610185834435
1035                      146.67296616791594
1040                      216.5151384588663
1045                      379.17550749581955
1050                      536.882463379683
1055                      305.0797130376183
1060                      187.60326795439244
1065                      133.77060514672033
1070                      104.05965678369547
1075                      85.4919855609737
1080                      72.90643228347975
1085                      63.888115601744296
1090                      57.16602279346096
1095                      52.01061397095691
1100                      47.97470822621002
1105                      44.76988224132252
1110                      42.20253314172351
1115                      40.13859075264274
1120                      38.482991019517556
1125                      37.16721390984273
1130                      36.14145329216817
1135                      35.36956778500877
1140                      34.82577193946597
1145                      34.49246355661293
1150                      34.35882938136304
1155                      34.42001784541774
1160                      34.676760444142275
1165                      35.13538839421348
1170                      35.8082441763948
1175                      36.71454006871959
1180                      37.88177923100001
1185                      39.34794420429623
1190                      41.164796506457584
1195                      43.40286133541413
1200                      46.15907291894992
1205                      49.568788078444214
1210                      53.82527321965728
1215                      59.21257806502665
1220                      66.16368953344089
1225                      75.36948369406012
1230                      87.99757456211832
1235                      106.17074262125509
1240                      134.12331327792648
1245                      181.29240753031195
1250                      270.1675267153387
1255                      418.8408397301853
1260                      391.7252674569795
1265                      249.64921327693204
1270                      171.5298855763921
1275                      129.24708542477498
1280                      103.68558570316291
1285                      86.82877360197537
1290                      74.99925380270291
1295                      66.31704340770497
1300                      59.732018914202676
1305                      54.61531281416275
1310                      50.56908116068629
1315                      47.330414992746334
1320                      44.71943908731358
1325                      42.60968459369906
1330                      40.91038516125554
1335                      39.555492248080355
1340                      38.496650656437325
1345                      37.6986050582672
1350                      37.136158269430865
1355                      36.79216159543213
1360                      36.65622558771943
1365                      36.72396612749519
1370                      36.99668319095552
1375                      37.48142919595708
1380                      38.19147404571603
1385                      39.14722542517701
1390                      40.377726435981
1395                      41.92294287861263
1400                      43.83719279513432
1405                      46.19430260204334
1410                      49.09547486068714
1415                      52.68157524611584
1420                      57.15290557758561
1425                      62.80220722404229
1430                      70.0721864793766
1435                      79.66099871519933
1440                      92.72728023250652
1445                      111.31473262935675
1450                      139.2805246685528
1455                      184.26821486164124
1460                      259.34191936646175
1465                      351.5361199880909
1470                      328.9239022206906
1475                      233.97510151500248
1480                      169.18157322413703
1485                      130.33976178446713
1490                      105.70634617632376
1495                      89.03851753031329
1500                      77.15892991662957
1505                      68.34998776398844
1510                      61.61927395029717
1515                      56.35910722540434
1520                      52.179011118840094
1525                      48.817962435336945
1530                      46.09577517408023
1535                      43.88482739856869
1540                      42.09292483494201
1545                      40.65254721048261
1550                      39.513905568836286
1555                      38.64036212448431
1560                      38.00536876602792
1565                      37.59041940003324
1570                      37.383709439997155
1575                      37.37931686679909
1580                      37.57679786546424
1585                      37.98114575112638
1590                      38.603107076419796
1595                      39.45989259332717
1600                      40.57637179031218
1605                      41.986908773668205
1610                      43.73810045782074
1615                      45.892842543824266
1620                      48.53642335884797
1625                      51.785821799616
1630                      55.804241681562466
1635                      60.82451076999985
1640                      67.18805947184251
1645                      75.412373706552
1650                      86.31248478695717
1655                      101.22763602513079
1660                      122.44735520855855
1665                      153.91994683291688
1670                      201.42487637626937
1675                      263.7153583349874
1680                      293.4190789166044
1685                      246.8913512640536
1690                      186.86735416581595
1695                      144.2794783439243
1700                      116.103544779858
1705                      96.89877875056642
1710                      83.24762374325444
1715                      73.17678940009417
1720                      65.52078222628576
1725                      59.56192561264323
1730                      54.83950399362637
1735                      51.046601399891664
1740                      47.97219821920648
1745                      45.46734937959364
1750                      43.42467995297462
1755                      41.76553655364959
1760                      40.431704287248735
1765                      39.379941719802204
1770                      38.57831357452054
1775                      38.00370909218505
1780                      37.640171391666215
1785                      37.47780646654345
1790                      37.51213088218213
1795                      37.74377792121044
1800                      38.17852663823601
1805                      38.82765610131088
1810                      39.70866512620092
1815                      40.846443150636134
1820                      42.27503956666485
1825                      44.040270364482836
1830                      46.20354466032833
1835                      48.84752838705033
1840                      52.0846578499545
1845                      56.0702001232176
1850                      61.02276830380888
1855                      67.25737337301881
1860                      75.23996860672915
1865                      85.6788836012472
1870                      99.67614904885329
1875                      118.95064457260722
1880                      145.9821699157261
1885                      182.89446793058926
1890                      223.94649379845848
1895                      240.69750937226917
1900                      213.64842246967206
1905                      172.0674542531641
1910                      137.87410217219318
1915                      113.23142707670084
1920                      95.60704479507766
1925                      82.71643409785332
1930                      73.03332182355597
1935                      65.5822029374741
1940                      59.732666040102636
1945                      55.06690460948348
1950                      51.30033107361645
1955                      48.23408448812115
1960                      45.726071058480485
1965                      43.672860688639986
1970                      41.99808103896619
1975                      40.644802691818995
1980                      39.57044351494988
1985                      38.74330797641791
1990                      38.14021891268941
1995                      37.74490340203648
2000                      37.546920144043426
