% Model:              adattamento a studio.mph
% Version:            COMSOL 5.6.0.341
% Date:               Jun 5 2021, 23:14
% Dimension:          1
% Nodes:              381
% Expressions:        1
% Description:        Grafico a punti
% X                       Height
100                       3.045566591633837
105                       3.1902290650358256
110                       3.3530042852157824
115                       3.536771268628908
120                       3.745066887112486
125                       3.9822800950225146
130                       4.253919342614156
135                       4.56698742865881
140                       4.930517677934383
145                       5.356358596030055
150                       5.860352454980349
155                       6.46415944009215
160                       7.1981811093974475
165                       8.106442062559905
170                       9.255151938761857
175                       10.748649305139555
180                       12.761397434974988
185                       15.608685191383232
190                       19.924446063551155
195                       27.199473774837728
200                       41.96664610663885
205                       87.62415578504132
210                       1544.8601844151199
215                       84.89732606920225
220                       44.48771223704574
225                       30.71124678876687
230                       23.80494545253677
235                       19.68427925205398
240                       16.969360919686547
245                       15.064552788364356
250                       13.670887705901723
255                       12.622057894029778
260                       11.818414406052844
265                       11.196842811304627
270                       10.715661402169946
275                       10.346481160054562
280                       10.06956006787824
285                       9.871029505377106
290                       9.741180693991673
295                       9.673381890746175
300                       9.663389387228204
305                       9.70891756728899
310                       9.809390640804146
315                       9.965833005493709
320                       10.180877686897091
325                       10.458889244164997
330                       10.806213003331823
335                       11.23157994029454
340                       11.746719951925902
345                       12.36727147487893
350                       13.114132394785951
355                       14.015494311322348
360                       15.109975390350819
365                       16.451590131080867
370                       18.117928139349285
375                       20.224230953949835
380                       22.948986453649656
385                       26.583747175843087
390                       31.63889516643678
395                       39.09545346294332
400                       51.10823668124
405                       73.50354291039157
410                       129.3156602158474
415                       481.9403316765948
420                       261.62189378093365
425                       108.13005820825646
430                       68.86741692028404
435                       51.06288784752203
440                       40.967356114727785
445                       34.511280016232185
450                       30.06359502755211
455                       26.84399624010876
460                       24.4327358486459
465                       22.584370344684295
470                       21.146208405367545
475                       20.018694402677784
480                       19.13457223407676
485                       18.44722101779771
490                       17.923794079170577
495                       17.54102458430269
500                       17.282589172694458
505                       17.137426479585496
510                       17.098670752757524
515                       17.163005639748604
520                       17.3303279200513
525                       17.603664725129033
530                       17.98932655828609
535                       18.49731216578032
540                       19.142017980823837
545                       19.943353261965264
550                       20.928435006731046
555                       22.13415630922873
560                       23.61112962678471
565                       25.42988582013565
570                       27.69093783536798
575                       30.541793667322526
580                       34.207191989367196
585                       39.046271671156866
590                       45.669449875522496
595                       55.20285927979326
600                       69.9746431024549
605                       95.68604248706818
610                       150.8391958941152
615                       342.1593704101175
620                       642.7036679001169
625                       202.59907431855137
630                       117.41813710139726
635                       83.17614158726185
640                       64.8833231828137
645                       53.58631417450474
650                       45.97483108539861
655                       40.54498116595585
660                       36.51635709792122
665                       33.444478091709115
670                       31.05825099184331
675                       29.183545649576555
680                       27.704011807376794
685                       26.539584999550023
690                       25.63404663219824
695                       24.947513720548006
700                       24.451759266524597
705                       24.127239118657215
710                       23.961199301968996
715                       23.94650691993739
720                       24.081002004365928
725                       24.367263262028843
730                       24.81274739663597
735                       25.430317640694103
740                       26.23923613852386
745                       27.26677163338021
750                       28.550689801182536
755                       30.14308537255238
760                       32.11635334315815
765                       34.57272515294648
770                       37.66002752828934
775                       41.5988810715845
780                       46.73224926975856
785                       53.6220012347781
790                       63.253939131328494
795                       77.52486881265526
800                       100.59196874223656
805                       143.54791335539082
810                       247.36991096921332
815                       612.2732079294103
820                       366.0386984953796
825                       181.82133650422207
830                       119.41947747990075
835                       89.16362522775971
840                       71.50497962284533
845                       60.025241198404885
850                       52.02702499854954
855                       46.184487421372395
860                       41.77180063584433
865                       38.3592305713166
870                       35.676869272187865
875                       33.54731868234322
880                       31.84983870047313
885                       30.500077772914892
890                       29.438051916384147
895                       28.620741245195045
900                       28.01740139433648
905                       27.606546162431517
910                       27.37400888977765
915                       27.3117400040408
920                       27.417145018842504
925                       27.692860800530305
930                       28.14693548428628
935                       28.793436367230722
940                       29.653574570894794
945                       30.757521293687187
950                       32.147222077258014
955                       33.8807349553672
960                       36.039007068861096
965                       38.736729463865096
970                       42.140335197191774
975                       46.49917551786079
980                       52.202528924396645
985                       59.89110128430526
990                       70.6944005137669
995                       86.79453661034876
1000                      112.9744602768552
1005                      161.7789927642469
1010                      274.41345305415945
1015                      489.80053286095045
1020                      300.06685986875937
1025                      171.6254139542133
1030                      117.70073829607576
1035                      89.46587559114089
1040                      72.35907149531026
1045                      60.990173033800374
1050                      52.95077430633758
1055                      47.01250616637765
1060                      42.48607160688018
1065                      38.956032281104115
1070                      36.15787031328273
1075                      33.91577619707694
1080                      32.10890241163181
1085                      30.652003665132646
1090                      29.48381316612556
1095                      28.559802611543073
1100                      27.84754278522745
1105                      27.323673399394327
1110                      26.971911436726394
1115                      26.781761729179475
1120                      26.747730956998744
1125                      26.868932031800846
1130                      27.149024566181385
1135                      27.59648358445794
1140                      28.225233348436955
1145                      29.055736130132523
1150                      30.116699687262262
1155                      31.447682213580546
1160                      33.103065547536836
1165                      35.15820523531562
1170                      37.71918900012793
1175                      40.93884091708782
1180                      45.044070806835194
1185                      50.38501517552358
1190                      57.52889131102448
1195                      67.45315812272244
1200                      81.98126785892293
1205                      104.88001243753595
1210                      144.94049553267865
1215                      223.64651971559044
1220                      335.8053320007765
1225                      261.32734706196385
1230                      163.61215906914967
1235                      114.20691626706875
1240                      87.0840523250409
1245                      70.38281843630969
1250                      59.20657501914859
1255                      51.27448928177413
1260                      45.40057950007642
1265                      40.912572738489004
1270                      37.40292559199441
1275                      34.611172033786815
1280                      32.36369759263568
1285                      30.54082953619168
1290                      29.057861175606103
1295                      27.85361339438559
1300                      26.883282350412777
1305                      26.113833424450334
1310                      25.5209687958706
1315                      25.087105113657465
1320                      24.800025749410224
1325                      24.652004881733138
1330                      24.63928183425391
1335                      24.76181706111474
1340                      25.023299331252307
1345                      25.431405550785787
1350                      25.99834688227355
1355                      26.741774071081707
1360                      27.686170054425553
1365                      28.86494310179583
1370                      30.32357367122065
1375                      32.124409132459554
1380                      34.35413327472359
1385                      37.13574855285855
1390                      40.64850040879156
1395                      45.162458244941654
1400                      51.10164078850512
1405                      59.16619889536698
1410                      70.58488069771913
1415                      87.67024542522651
1420                      115.04807255807538
1425                      161.31778273841957
1430                      225.0719154095496
1435                      223.007467796125
1440                      158.63628857200766
1445                      112.92176107375317
1450                      85.89161610230715
1455                      68.99023539265399
1460                      57.670179512141274
1465                      49.65808908476592
1470                      43.74410095521635
1475                      39.237611030537124
1480                      35.71967164179266
1485                      32.92299020701718
1490                      30.66983522343676
1495                      28.837969265367313
1500                      27.34099136963274
1505                      26.116495622052252
1510                      25.118673893095178
1515                      24.31355278939286
1520                      23.675851703815425
1525                      23.186874155146597
1530                      22.833081200842834
1535                      22.605132584650903
1540                      22.49726374521571
1545                      22.50691894350893
1550                      22.634596006976505
1555                      22.883884566759857
1560                      23.261702565725322
1565                      23.77875962461703
1570                      24.450305203200074
1575                      25.297260593193815
1580                      26.347896376876488
1585                      27.64031780028119
1590                      29.226189836665107
1595                      31.176428746776715
1600                      33.590119725164264
1605                      36.60891824750588
1610                      40.4411334212987
1615                      45.40360130646188
1620                      51.997529459898956
1625                      61.05092126877905
1630                      73.98796685637113
1635                      93.2760009516076
1640                      122.47531428202755
1645                      160.04322695404844
1650                      174.5585138706247
1655                      143.87752711584082
1660                      108.23189505928639
1665                      83.50620739800301
1670                      67.20839798128648
1675                      56.089292022048745
1680                      48.16902748276337
1685                      42.31212735237719
1690                      37.84852950406037
1695                      34.36522912510068
1700                      31.5966671701034
1705                      29.365601472853847
1710                      27.549914738527672
1715                      26.0632075162271
1720                      24.843015869536515
1725                      23.84341520308804
1730                      23.030241648480327
1735                      22.377929730910424
1740                      21.86738071074191
1745                      21.484509357516533
1750                      21.219252533429316
1755                      21.064904597751564
1760                      21.01769576881228
1765                      21.076563293036997
1770                      21.24308925530532
1775                      21.52159799751751
1780                      21.919423938444787
1785                      22.447380291470953
1790                      23.120484409147565
1795                      23.95903134755078
1800                      24.99016179109385
1805                      26.250157302948104
1810                      27.787838873684517
1815                      29.669687178730666
1820                      31.987724618709223
1825                      34.87194847786269
1830                      38.510451997916896
1835                      43.182763003628224
1840                      49.31581974672338
1845                      57.575977777218526
1850                      68.99898137062026
1855                      85.03238444863742
1860                      106.60298668033415
1865                      128.82644026624774
1870                      133.92935068760758
1875                      115.71697951806803
1880                      92.5441673783835
1885                      74.28012693324104
1890                      61.21047690080653
1895                      51.84123407575097
1900                      44.95746821665982
1905                      39.76214576627018
1910                      35.746672950810265
1915                      32.581391199790716
1920                      30.046884277375938
1925                      27.9930271338023
1930                      26.314458514602375
1935                      24.935575667610603
1940                      23.801116641279272
1945                      22.87009740993354
1950                      22.11181693292562
1955                      21.503171836761563
1960                      21.02682336801267
1965                      20.66993477382519
1970                      20.42330237349948
1975                      20.280768409523834
1980                      20.238845177463233
1985                      20.296507668816712
1990                      20.455131887236735
1995                      20.718571908550597
2000                      21.093383416169747
