% Model:              adattamento a studio.mph
% Version:            COMSOL 5.6.0.341
% Date:               Jun 5 2021, 23:15
% Dimension:          1
% Nodes:              381
% Expressions:        1
% Description:        Grafico a punti
% X                       Height
100                       11915.218171096281
105                       12241.302609794593
110                       12622.465621050462
115                       13072.842813288515
120                       13612.08902265862
125                       14268.359771323472
130                       15083.462713917146
135                       16122.276080460955
140                       17491.218065000103
145                       19377.84969636206
150                       22146.470018177755
155                       26610.522552318514
160                       35033.23827114807
165                       56949.85345295387
170                       255128.32139013076
175                       72457.0387314088
180                       26759.826298769894
185                       14129.608297475825
190                       8190.10886572277
195                       4721.4701642724685
200                       2434.129422071884
205                       801.9175213175798
210                       435.60690519989157
215                       1407.919893098428
220                       2203.806212938429
225                       2874.0665522601003
230                       3453.210819287093
235                       3965.3193480971936
240                       4427.8681577594925
245                       4854.039964222023
250                       5254.179367472844
255                       5636.753468562338
260                       6009.0208144851185
265                       6377.528859047822
270                       6748.516481906244
275                       7128.275833923193
280                       7523.518615052547
285                       7941.792627307689
290                       8392.005288071347
295                       8885.135465437856
300                       9435.262657934729
305                       10061.132855908443
310                       10788.655946603645
315                       11655.08668823022
320                       12716.413393984867
325                       14061.278331924443
330                       15839.363209660753
335                       18325.48485853149
340                       22085.757454439652
345                       28503.96546241699
350                       42093.9914219028
355                       90834.53748413122
360                       266979.1719281383
365                       48484.15845673546
370                       24518.419095042387
375                       15310.377190029352
380                       10411.630141493953
385                       7352.545333791549
390                       5247.195958281597
395                       3699.1949998994537
400                       2504.544925646214
405                       1547.6195300004078
410                       758.8266754852682
415                       121.16410088307885
420                       506.04828492356995
425                       1015.5705258768955
430                       1476.096781962962
435                       1897.6060689980811
440                       2289.144462505085
445                       2658.1935594442884
450                       3011.059877716608
455                       3353.248995585738
460                       3689.773781489775
465                       4025.417083038872
470                       4364.97440722407
475                       4713.501765196375
480                       5076.596046778845
485                       5460.742328264564
490                       5873.777040986567
495                       6325.543003167995
500                       6828.862184507198
505                       7401.046033753355
510                       8066.347585950527
515                       8860.141261593464
520                       9836.460345336429
525                       11082.546663757614
530                       12749.442693187908
535                       15123.934378478958
540                       18826.04342111134
545                       25492.52290873139
550                       41310.91867820211
555                       128684.66907877769
560                       94360.70556969872
565                       32040.715993597987
570                       18217.60370024433
575                       12104.134405450808
580                       8633.690232076353
585                       6380.998590293234
590                       4789.062925083238
595                       3595.2904553714598
600                       2659.6449121188834
605                       1900.6497773448468
610                       1267.913172919345
615                       729.7779053318692
620                       276.3398952392053
625                       220.3578238403878
630                       574.1781714694673
635                       918.6255084193115
640                       1242.287569911142
645                       1548.830195491836
650                       1842.559494063053
655                       2127.5097260409752
660                       2407.4390769792026
665                       2685.956499133264
670                       2966.6747333417775
675                       3253.3783207402594
680                       3550.216603095015
685                       3861.9413647677006
690                       4194.219280085782
695                       4554.066148056366
700                       4950.479453867995
705                       5395.399893718522
710                       5905.23561368787
715                       6503.389328815233
720                       7224.666999826071
725                       8123.448139673565
730                       9289.997879551936
735                       10886.288109736264
740                       13235.345671638655
745                       17088.411876424136
750                       24687.603440734205
755                       47107.21602623026
760                       1014962.8962428939
765                       44052.28507938357
770                       20683.020768112758
775                       12910.384199688517
780                       9000.06532194879
785                       6628.401425704443
790                       5024.072143342737
795                       3857.245405550536
800                       2963.2116334354646
805                       2250.5560443989616
810                       1664.5676117506625
815                       1170.8336517911753
820                       747.8470721669861
825                       388.0913082693246
830                       169.45126822518486
835                       345.2084925437912
840                       611.4241289043574
845                       872.8210267754362
850                       1124.2919737578084
855                       1367.486412121899
860                       1604.9941006701665
865                       1839.5421086325127
870                       2073.890168011174
875                       2310.882739860737
880                       2553.555234936995
885                       2805.276636180125
890                       3069.935645629845
895                       3352.1912395073227
900                       3657.8238990815385
905                       3994.248101885643
910                       4371.289827490878
915                       4802.414073834117
920                       5306.748501325878
925                       5912.588329034663
930                       6663.833088349325
935                       7632.690547831464
940                       8947.157712225602
945                       10858.168885790707
950                       13934.388820233478
955                       19799.027631309422
960                       35689.26885858195
965                       251837.41378964117
970                       44983.59512822099
975                       19611.650921470882
980                       12029.554197226958
985                       8357.602337721093
990                       6174.408352606962
995                       4715.595832608619
1000                      3663.4140240424626
1005                      2862.094755841067
1010                      2226.32549413986
1015                      1705.5593011113447
1020                      1268.2095736111694
1025                      894.2732500026256
1030                      573.0792150017496
1035                      312.02605740799385
1040                      209.83255873423926
1045                      357.18506349157343
1050                      566.8545893165684
1055                      779.8891738277606
1060                      989.0350220398057
1065                      1194.3238727745163
1070                      1397.3038829361715
1075                      1599.9636381543148
1080                      1804.501348124118
1085                      2013.3142950315982
1090                      2229.070482207823
1095                      2454.8312192247504
1100                      2694.2265916085184
1105                      2951.7034058741374
1110                      3232.883409318532
1115                      3545.0974663433776
1120                      3898.210914402114
1125                      4305.949849604828
1130                      4788.12938630988
1135                      5374.597770844012
1140                      6112.672023106284
1145                      7082.303261663503
1150                      8430.320304735624
1155                      10459.192964220601
1160                      13908.17710344373
1165                      21188.38362231547
1170                      47260.37816753599
1175                      150546.17397813394
1180                      27302.17746348656
1185                      14394.337168861106
1190                      9437.396444257718
1195                      6795.362073902193
1200                      5140.7887222751015
1205                      3998.1662228744167
1210                      3154.9494740331425
1215                      2501.8708183839426
1220                      1977.0634262579858
1225                      1543.0129838405176
1230                      1175.9703041896405
1235                      860.9660946000421
1240                      590.4577073054862
1245                      369.4597703560473
1250                      245.04419105027318
1255                      299.3734733725054
1260                      453.4656409450541
1265                      628.8294990855195
1270                      807.1190291092895
1275                      984.9024746845637
1280                      1162.259287260718
1285                      1340.3507906506468
1290                      1520.7945005544045
1295                      1705.505605529357
1300                      1896.6968911666595
1305                      2096.954704014215
1310                      2309.373201226159
1315                      2537.755464354314
1320                      2786.909151247228
1325                      3063.0885177204837
1330                      3374.6748470222724
1335                      3733.262126437833
1340                      4155.4637431749525
1345                      4666.072294815015
1350                      5303.928012000595
1355                      6133.661429902469
1360                      7271.550473015151
1365                      8950.251349864293
1370                      11713.395907215534
1375                      17196.740682749845
1380                      33640.62999056334
1385                      2030957.388528464
1390                      30889.475081268363
1395                      14907.134762159694
1400                      9510.732902002339
1405                      6779.795441766386
1410                      5118.017179571774
1415                      3991.5588322186404
1420                      3171.1971713084827
1425                      2542.1961659694225
1430                      2040.8199058545422
1435                      1628.9470582730667
1440                      1282.6156085844673
1445                      986.51359142408
1450                      731.6038454080569
1455                      515.6077454186534
1460                      349.659897215966
1465                      275.6857356984977
1470                      328.63923298984764
1475                      453.4689050629997
1480                      600.7249913640059
1485                      754.4345322946548
1490                      910.3889894400435
1495                      1067.950588034038
1500                      1227.7674999261533
1505                      1391.0813981722117
1510                      1559.517369209968
1515                      1735.05265396965
1520                      1920.073756014845
1525                      2117.499078152376
1530                      2330.9732523911657
1535                      2565.1602395891105
1540                      2826.18814308661
1545                      3122.3414509129734
1550                      3465.17635953661
1555                      3871.3955531104148
1560                      4366.164636359248
1565                      4989.356221548775
1570                      5808.260385524143
1575                      6946.208379845205
1580                      8656.488410943859
1585                      11555.12260500431
1590                      17633.175875093628
1595                      38941.35137948262
1600                      143820.04021877167
1605                      24005.791835428674
1610                      12657.687201986215
1615                      8353.844484319425
1620                      6072.63617364973
1625                      4648.98710447469
1630                      3668.4501366381833
1635                      2946.561454263849
1640                      2388.7815632827096
1645                      1941.7198898182482
1650                      1573.0703759038852
1655                      1262.3721855246158
1660                      996.4909515296505
1665                      767.5747301824185
1670                      572.966185640061
1675                      418.0908364258688
1680                      323.74270041129415
1685                      319.61780899145907
1690                      394.96515164768994
1695                      509.2339717350423
1700                      638.7484482715336
1705                      774.7595180346224
1710                      914.5096610699569
1715                      1057.5530652850096
1720                      1204.4682939925576
1725                      1356.4021032525318
1730                      1514.92374332985
1735                      1682.0176893220944
1740                      1860.159018010904
1745                      2052.4611977264026
1750                      2262.911353690879
1755                      2496.7320591557195
1760                      2760.943574416615
1765                      3065.2624829000238
1770                      3423.594182368941
1775                      3856.6324102638964
1780                      4396.658915999693
1785                      5097.07356811725
1790                      6053.165203769114
1795                      7453.3794338491725
1800                      9730.254397289093
1805                      14145.438161498434
1810                      26605.987433568764
1815                      325813.6772837357
1820                      29998.25741527051
1825                      13866.134953338498
1830                      8776.859330271678
1835                      6266.054903025801
1840                      4759.533574221775
1845                      3747.8469436692976
1850                      3016.299382467763
1855                      2458.7508914167943
1860                      2016.7703277084854
1865                      1655.6459793096647
1870                      1353.6418032359802
1875                      1096.7735911967968
1880                      876.2352767912383
1885                      687.4204015201686
1890                      530.4193201664656
1895                      412.3980085537553
1900                      349.7256975029954
1905                      356.1683954158183
1910                      419.77272471274927
1915                      515.3503039055553
1920                      626.3617711815591
1925                      745.3544440719747
1930                      869.4680194262855
1935                      997.9429334995126
1940                      1131.0607352212833
1945                      1269.7155906770295
1950                      1415.2593462400396
1955                      1569.4807196502209
1960                      1734.6684617946603
1965                      1913.7483671695534
1970                      2110.5083327452276
1975                      2329.9496333362817
1980                      2578.837701445646
1985                      2866.588378153673
1990                      3206.749023040737
1995                      3619.595482058503
2000                      4136.9646210380115
