% Model:              adattamento a studio.mph
% Version:            COMSOL 5.6.0.341
% Date:               Jun 5 2021, 15:46
% Dimension:          1
% Nodes:              381
% Expressions:        1
% Description:        Grafico a punti
% X                       Height
100                       11775.254579451715
105                       12083.866681970025
110                       12442.973602493243
115                       12865.008004887728
120                       13367.054076370743
125                       13973.243539207495
130                       14718.805518098816
135                       15657.275239530109
140                       16874.165559166067
145                       18515.048511050543
150                       20849.54172147166
155                       24439.254858973487
160                       30679.86196578764
165                       44262.82526156028
170                       96843.20839653483
175                       186506.61337146998
180                       39203.28249451454
185                       18794.038164749178
190                       10676.432289224953
195                       6298.418050028017
200                       3545.468975723331
205                       1642.9167527740933
210                       242.70848445213332
215                       850.006076822044
220                       1724.2538622081531
225                       2450.6673482753763
230                       3070.608697453702
235                       3612.4892711704356
240                       4096.553542219039
245                       4537.786060850683
250                       4947.707288540991
255                       5335.532119564063
260                       5708.954184772236
265                       6074.707722480049
270                       6438.999862492357
275                       6807.875013898876
280                       7187.557790908562
285                       7584.81616556475
290                       8007.390683098496
295                       8464.549973893727
300                       8967.862450236156
305                       9532.330222436176
310                       10178.1378006107
315                       10933.477168279607
320                       11839.342172695719
325                       12958.134586613885
330                       14390.187403388167
335                       16308.273024682489
340                       19038.029762582693
345                       23275.936849293783
350                       30828.645529293986
355                       48290.852921323494
360                       133744.57953553298
365                       126413.24081422339
370                       38949.46325844559
375                       21299.59546942907
380                       13694.934421470703
385                       9436.141876476437
390                       6696.501455678723
395                       4773.585871618961
400                       3339.565600467541
405                       2220.8368664711093
410                       1317.0351566078318
415                       567.7584218185406
420                       121.01681016907568
425                       647.9664987224396
430                       1142.648031474326
435                       1591.200914898345
440                       2003.6595493311302
445                       2388.6243281078314
450                       2753.240077578504
455                       3103.5999171430935
460                       3445.1033744134015
465                       3782.7543449601794
470                       4121.422883765421
475                       4466.097241129416
480                       4822.153272454969
485                       5195.672812342449
490                       5593.853335525802
495                       6025.572104088218
500                       6502.20670676278
505                       7038.886251014771
510                       7656.487299259495
515                       8384.97224369057
520                       9269.279204725324
525                       10380.393439920246
530                       11837.855809222445
535                       13860.385194896304
540                       16896.382530464332
545                       22033.870559497052
550                       32774.90424474437
555                       70051.15605028202
560                       253173.73063357922
565                       41559.77824251542
570                       21157.770601064156
575                       13444.822122107267
580                       9363.407773159977
585                       6818.753884288033
590                       5066.911727284649
595                       3776.9963129389366
600                       2779.395218739897
605                       1978.2024531520565
610                       1315.3244206344325
615                       754.6610305076522
620                       283.3654335964315
625                       225.28091217787733
630                       591.5593958668251
635                       946.5157333336914
640                       1279.7336735268818
645                       1595.4013153092085
650                       1898.2290684857146
655                       2192.6127596526017
660                       2482.6687210548616
665                       2772.3927151010557
670                       3065.8462923600646
675                       3367.365315099416
680                       3681.8075295564
685                       4014.868917116382
690                       4373.515384865201
695                       4766.6051540886665
700                       5205.829949897835
705                       5707.203933346271
710                       6293.531705851432
715                       6998.717731155183
720                       7875.766442794126
725                       9012.794177348083
730                       10568.310819535725
735                       12859.639957338908
740                       16629.169812432603
745                       24116.026829840368
750                       46661.690730695605
755                       687984.984025459
760                       40709.855040527655
765                       19350.57842204506
770                       12086.403362580937
775                       8398.30846988028
780                       6148.580913793804
785                       4619.925836873055
790                       3503.7089227198526
795                       2645.1827865165255
800                       1958.248303677495
805                       1391.4004363259503
810                       912.7205935065455
815                       505.10266966044816
820                       196.96412401502405
825                       287.26733211530353
830                       567.6323111395162
835                       847.0331833316294
840                       1115.2217506269576
845                       1373.8827212752794
850                       1626.0538090754064
855                       1874.942276900102
860                       2123.7888453481764
865                       2375.941512988614
870                       2634.9986674309803
875                       2905.001066852306
880                       3190.68618858205
885                       3497.8386578252444
890                       3833.795610250571
895                       4208.208334654344
900                       4634.2409558259615
905                       5130.544479880803
910                       5724.6765918590245
915                       6459.38893064696
920                       7405.057978505478
925                       8686.642862350096
930                       10549.786526539629
935                       13553.565405449559
940                       19305.80628711519
945                       35096.412853535505
950                       285029.8725550864
955                       41828.84787673081
960                       18464.994958532854
965                       11332.135951874563
970                       7849.628419857227
975                       5768.609921283198
980                       4372.534823010569
985                       3361.991748217053
990                       2589.7197873702416
995                       1974.9115576081701
1000                      1469.71561044906
1005                      1044.530169197055
1010                      681.8556573123723
1015                      379.2357852242077
1020                      204.13150268227577
1025                      321.9460799098343
1030                      542.781007850715
1035                      769.6762489033504
1040                      991.9215126955388
1045                      1209.4355121951105
1050                      1424.042615680268
1055                      1638.0608424371349
1060                      1854.0283393826855
1065                      2074.7017654027163
1070                      2303.1517027365003
1075                      2542.9192479043754
1080                      2798.2394580505247
1085                      3074.3601726453107
1090                      3378.0102244742193
1095                      3718.112336671825
1100                      4106.912372893774
1105                      4561.8481169744055
1110                      5108.80111138398
1115                      5788.103496157746
1120                      6666.481189407525
1125                      7863.139496457414
1130                      9614.347541192525
1135                      12464.45410764849
1140                      18011.9394714054
1145                      33858.339580303764
1150                      516565.76396519033
1155                      35687.48176350439
1160                      16472.80955460747
1165                      10305.472815510964
1170                      7241.019968816343
1175                      5393.405020962662
1180                      4147.4504459990985
1185                      3242.717493813081
1190                      2550.0344620416136
1195                      1998.1080641772876
1200                      1544.5233222792
1205                      1162.8278264738447
1210                      836.6066367139697
1215                      558.0949251435328
1220                      335.91459844235527
1225                      237.0623610616501
1230                      332.0696147875547
1235                      504.64863109433077
1240                      690.3118325070635
1245                      876.6156182451541
1250                      1061.749903909906
1255                      1246.4311053039876
1260                      1432.1868142630942
1265                      1620.9249112496423
1270                      1814.8487867998087
1275                      2016.4992710005051
1280                      2228.8676194207324
1285                      2455.574237027067
1290                      2701.1324580510736
1295                      2971.3398832372945
1300                      3273.8742307689436
1305                      3619.232310522776
1310                      4022.270816359714
1315                      4504.857448410298
1320                      5100.6986863888
1325                      5864.765890259045
1330                      6893.400989771153
1335                      8372.51337661956
1340                      10713.569560344395
1345                      15045.298406576016
1350                      25985.66443039498
1355                      110977.89473767798
1360                      44590.0972472327
1365                      17744.60647919577
1370                      10696.508647690236
1375                      7422.304727728899
1380                      5516.376313144219
1385                      4259.285399613763
1390                      3360.6661579076454
1395                      2680.867017866128
1400                      2144.442953071864
1405                      1707.1641539560915
1410                      1341.6012847100017
1415                      1030.3035268290885
1420                      762.7435726477648
1425                      535.313322465304
1430                      357.51695392422806
1435                      271.6292152002925
1440                      321.3776245549947
1445                      449.81868038615244
1450                      601.7047308837799
1455                      759.8239952851802
1460                      919.8625310807289
1465                      1081.246651960903
1470                      1244.7074698106298
1475                      1411.5666188706778
1480                      1583.5261739474454
1485                      1762.6416132167994
1490                      1951.3844751681986
1495                      2152.77194114171
1500                      2370.5705240150837
1505                      2609.6027818438174
1510                      2876.2132204260793
1515                      3178.9950002018118
1520                      3529.9645397324925
1525                      3946.5439554689146
1530                      4455.085581544686
1535                      5097.549508881636
1540                      5945.205481883909
1545                      7129.817716786127
1550                      8925.374251582714
1555                      12011.32302902616
1560                      18663.971934917525
1565                      44135.73501229966
1570                      100794.19195506268
1575                      22402.513812314814
1580                      12182.288398181572
1585                      8129.608195961497
1590                      5939.908613253522
1595                      4558.299423961831
1600                      3599.8115435571613
1605                      2890.466969311509
1610                      2340.1850017518245
1615                      1897.7246957465525
1620                      1531.9267638165734
1625                      1223.013537841795
1630                      958.3451430506291
1635                      730.6053674817932
1640                      538.1379351281446
1645                      388.9850286589314
1650                      309.4098825847192
1655                      327.43122891696765
1660                      418.690994109557
1665                      541.6128313557905
1670                      676.4287446779622
1675                      816.3972156449091
1680                      959.602987051252
1685                      1105.9922093081375
1690                      1256.362878417448
1695                      1412.0156386618735
1700                      1574.6551243654383
1705                      1746.4085611513922
1710                      1929.9207475799535
1715                      2128.5225156723277
1720                      2346.4933768714163
1725                      2589.4644137870664
1730                      2865.0468559364704
1735                      3183.843809842481
1740                      3561.1460974018546
1745                      4019.919820057958
1750                      4596.401054592072
1755                      5351.405343044832
1760                      6395.562253416182
1765                      7953.646870979843
1770                      10563.285875809728
1775                      15910.38417776922
1780                      33409.58617025057
1785                      222038.8300975064
1790                      24466.76356754358
1795                      12538.83192493942
1800                      8209.92330099124
1805                      5957.158098973643
1810                      4565.879300396014
1815                      3614.316632041146
1820                      2917.4063497836582
1825                      2381.2048639922396
1830                      1953.0228073595972
1835                      1601.1369228015185
1840                      1305.506029801682
1845                      1053.2067538039137
1850                      836.221047658315
1855                      650.7585131078869
1860                      498.2027837462353
1865                      388.1804661027121
1870                      339.73521608020627
1875                      363.14189585725916
1880                      439.35548050055354
1885                      542.7123625212147
1890                      658.8654396512089
1895                      781.8108525157663
1900                      909.4174147084068
1905                      1041.306042428898
1910                      1177.9872182560832
1915                      1320.523150588565
1920                      1470.417818460498
1925                      1629.6233688692334
1930                      1800.6254751239032
1935                      1986.6048492540629
1940                      2191.695537806574
1945                      2421.38676793411
1950                      2683.156186644516
1955                      2987.4980717847025
1960                      3349.6623928465297
1965                      3792.749971775798
1970                      4353.580387013795
1975                      5094.738807213361
1980                      6132.008959594662
1985                      7706.319895070841
1990                      10415.71300054431
1995                      16267.114122174451
2000                      38769.90286401453
