% Model:              adattamento a studio.mph
% Version:            COMSOL 5.6.0.341
% Date:               Jun 5 2021, 23:14
% Dimension:          1
% Nodes:              381
% Expressions:        1
% Description:        Grafico a punti
% X                       Height
100                       11818.404270980142
105                       12133.089903039438
110                       12499.88811902931
115                       12931.834812342948
120                       13446.923376823941
125                       14070.705222564891
130                       14840.722020481884
135                       15814.475149198799
140                       17084.731011875436
145                       18811.467847732543
150                       21296.24487313421
155                       25183.38471929967
160                       32140.322307257433
165                       48223.44736856746
170                       125873.48649701018
175                       117855.48780926358
180                       33405.045275277036
185                       16738.180449104806
190                       9603.21929557884
195                       5623.929007367407
200                       3072.0301190229065
205                       1285.0804560861898
210                       65.34066531769962
215                       1087.4085625582202
220                       1928.6054383025512
225                       2631.3800184871825
230                       3234.2175817709813
235                       3763.6967087783946
240                       4238.895583114715
245                       4674.045367528171
250                       5080.181085085387
255                       5466.216501218604
260                       5839.680331821827
265                       6207.25209852113
270                       6575.183647422015
275                       6949.665087857857
280                       7337.181392062527
285                       7744.903710004568
290                       8181.1668256420235
295                       8656.10360403459
300                       9182.545762072448
305                       9777.373142924826
310                       10463.633715466742
315                       11274.036866784709
320                       12257.01615076574
325                       13487.906182074103
330                       15091.122070177555
335                       17288.491610984678
340                       20518.554277901458
345                       25787.808935369856
350                       36032.01558348633
355                       64985.12345276774
360                       646202.1525130073
365                       66153.94472557108
370                       29073.31919531017
375                       17322.528017179906
380                       11526.44782775864
385                       8053.250250049533
390                       5724.679199344474
395                       4043.4133742327876
400                       2763.187443000379
405                       1748.1472111641951
410                       917.7303139879124
415                       230.31289742633734
420                       401.14534626151953
425                       926.5306401578592
430                       1400.7922282411905
435                       1833.5846175027823
440                       2234.545493363569
445                       2611.6510327041765
450                       2971.596636973603
455                       3320.203057996784
460                       3662.7532447226977
465                       4004.278843897253
470                       4349.824491451855
475                       4704.718144325652
480                       5074.878416716253
485                       5467.198247558525
490                       5890.061527709317
495                       6354.081868913953
500                       6873.213431966208
505                       7466.50001891257
510                       8160.961284716682
515                       8996.607839350234
520                       10035.698187604381
525                       11381.135104944206
530                       13216.629380080967
535                       15906.091840090825
540                       20287.38695217091
545                       28818.14918590037
550                       53149.840084701784
555                       660111.0528690572
560                       54051.519849397824
565                       24406.944676452236
570                       14894.73056096489
575                       10173.72815273401
580                       7331.332903546854
585                       5417.458783562143
590                       4029.8280562862724
595                       2968.825430303383
600                       2124.145818238077
605                       1430.0316495616764
610                       845.6991774720702
615                       351.3675338178963
620                       177.99718944814347
625                       541.9773235683133
630                       904.7467711848336
635                       1244.8640983460607
640                       1566.3485668915832
645                       1874.0840676222804
650                       2172.63675351086
655                       2466.26096232033
660                       2759.0608115306945
665                       3055.1825881082555
670                       3359.0285180392316
675                       3675.5083176115263
680                       4010.358393615526
685                       4370.5754302753685
690                       4765.039808083134
695                       5205.456894415701
700                       5707.844838333266
705                       6294.9994160052
710                       7000.796435681959
715                       7878.176516900349
720                       9015.121654110559
725                       10569.846616892008
730                       12858.952016180694
735                       16622.69084113055
740                       24091.465095054748
745                       46535.1714398665
750                       728478.7479502892
755                       40833.34800412245
760                       19373.372690756732
765                       12089.81948389764
770                       8394.533543299425
775                       6141.16929936232
780                       4610.285769255572
785                       3492.5081145323334
790                       2632.7775123441133
795                       1944.8467561309747
800                       1377.1411102825696
805                       897.745436745454
810                       489.86804918537723
815                       187.88215143746316
820                       300.9069575128998
825                       584.6017346045799
830                       865.2910471900029
835                       1134.484591891191
840                       1394.1039017857406
845                       1647.2571846627789
850                       1897.1880108335772
855                       2147.1653765425144
860                       2400.5657497257916
865                       2661.020344494942
870                       2932.610577925031
875                       3220.126529885113
880                       3529.4231369347935
885                       3867.9343250091765
890                       4245.4487027522855
895                       4675.331808024821
900                       5176.541642944934
905                       5777.125761282417
910                       6520.6626556268675
915                       7479.0270677831295
920                       8780.156883484868
925                       10676.419626589946
930                       13745.175928744939
935                       19661.58724021444
940                       36174.43512014095
945                       362189.77496574237
950                       40681.164161405955
955                       18267.20859701472
960                       11269.188770070843
965                       7825.623940116854
970                       5759.497941950424
975                       4369.973048927745
980                       3362.5105195518045
985                       2591.7038147198614
990                       1977.55183918085
995                       1472.5849892242386
1000                      1047.3845654855822
1005                      684.503682609495
1010                      381.27644689525636
1015                      203.556809436114
1020                      319.1066659588286
1025                      539.7161854132476
1030                      766.5145124714027
1035                      988.5959424799341
1040                      1205.8427022407222
1045                      1420.0558066927342
1050                      1633.5271827928016
1055                      1848.7617587472025
1060                      2068.472368596939
1065                      2295.670692618717
1070                      2533.8173560413074
1075                      2787.0355316618543
1080                      3060.414369168876
1085                      3360.4523767304804
1090                      3695.7288516563885
1095                      4077.961055944152
1100                      4523.7417045526745
1105                      5057.537871845649
1110                      5717.176199382472
1115                      6564.614939208382
1120                      7709.096868965498
1125                      9363.23216647146
1130                      12003.647489798874
1135                      16966.224478284115
1140                      29973.38683006206
1145                      161297.1910004478
1150                      43271.305310295924
1155                      18161.985656481134
1160                      11053.528137527072
1165                      7671.218554088665
1170                      5677.745109618971
1175                      4352.433153434098
1180                      3399.5614870480376
1185                      2675.3825476736115
1190                      2101.656792497091
1195                      1632.2771150144079
1200                      1238.6040550856321
1205                      902.6524746320438
1210                      614.7798201692426
1215                      378.2075159276764
1220                      240.95484127469908
1225                      298.3024740326109
1230                      462.09656026168335
1235                      646.100821608226
1240                      832.006425594892
1245                      1016.7754786054495
1250                      1200.767882308477
1255                      1385.359236032122
1260                      1572.3529967598024
1265                      1763.8452213200005
1270                      1962.2422515956923
1275                      2170.35428865576
1280                      2391.551015687068
1285                      2629.9921913510307
1290                      2890.9673113210683
1295                      3181.40709199176
1300                      3510.6788465360864
1305                      3891.871565346706
1310                      4343.966979994928
1315                      4895.706793649482
1320                      5592.939254082567
1325                      6513.748026740508
1330                      7803.0514056883785
1335                      9763.899162656828
1340                      13154.605507946477
1345                      20559.05969620228
1350                      50189.318078484
1355                      94662.98105380249
1360                      23093.790920753803
1365                      12667.456874347748
1370                      8453.863590809164
1375                      6157.537117309395
1380                      4701.072628469078
1385                      3686.879288164699
1390                      2934.053531487586
1395                      2348.4913365813936
1400                      1876.4800830532834
1405                      1485.285287327524
1410                      1154.1495641672277
1415                      870.0186990929667
1420                      626.2124172934389
1425                      425.1743688134088
1430                      292.21816590918996
1435                      284.70115782496123
1440                      388.7855343747226
1445                      533.7388140390905
1450                      689.6697350898485
1455                      848.6228946238043
1460                      1008.8992207218321
1465                      1170.792530012783
1470                      1335.3934710791657
1475                      1504.2267950465207
1480                      1679.1624835690927
1485                      1862.4425220410787
1490                      2056.7782700579496
1495                      2265.5141498113535
1500                      2492.875948179904
1505                      2744.3445463648804
1510                      3027.2297279558834
1515                      3351.5793576831347
1520                      3731.67758369177
1525                      4188.63277637309
1530                      4755.1100562962265
1535                      5484.617428386047
1540                      6471.4378577091275
1545                      7898.815400081679
1550                      10176.583313547839
1555                      14448.699603933741
1560                      25571.832038511184
1565                      131987.47498198954
1570                      38728.681275821225
1575                      16232.785273964406
1580                      9957.622942143398
1585                      6987.674299373855
1590                      5243.156570530397
1595                      4086.6159376961336
1600                      3257.348855384301
1605                      2628.917533144211
1610                      2132.6234457649416
1615                      1728.0221881314585
1620                      1389.9322240528886
1625                      1102.2007848235187
1630                      854.7045123202151
1635                      642.4345064720965
1640                      467.1140964090642
1645                      343.62858342154516
1650                      304.79938714368365
1655                      359.91761228300606
1660                      468.35166283354664
1665                      597.504350574981
1670                      734.6995347256814
1675                      875.8579745428815
1680                      1020.0548961205205
1685                      1167.6606724018238
1690                      1319.6985640657692
1695                      1477.6291423734042
1700                      1643.3093699654942
1705                      1819.0440299441448
1710                      2007.7079205947318
1715                      2212.9459738183496
1720                      2439.4808236451167
1725                      2693.5861105431936
1730                      2983.8322432372966
1735                      3322.3032404874225
1740                      3726.6711587305986
1745                      4223.927011808099
1750                      4857.549295379272
1755                      5702.477678334562
1760                      6900.007692050285
1765                      8752.340337199661
1770                      12043.184773346127
1775                      19632.63349582342
1780                      56827.692525295206
1785                      57458.291311700814
1790                      18337.436479792377
1795                      10595.053448652063
1800                      7263.570092725942
1805                      5396.259321949608
1810                      4193.112949757405
1815                      3347.1470303046435
1820                      2715.3298013753574
1825                      2222.0679694560918
1830                      1823.7340656696947
1835                      1493.525176814177
1840                      1214.3084316419029
1845                      975.0642953765633
1850                      769.2578452464866
1855                      594.671632252341
1860                      455.0466208577904
1865                      363.55857636745134
1870                      339.68176180067087
1875                      384.0596119657207
1880                      471.70679265710265
1885                      580.3359092664931
1890                      699.0630274884383
1895                      823.5567853073896
1900                      952.426123036065
1905                      1085.647619127598
1910                      1223.9335286451517
1915                      1368.490867845587
1920                      1520.9574301166315
1925                      1683.4356496703797
1930                      1858.6008822519686
1935                      2049.889241037552
1940                      2261.792884488506
1945                      2500.3197059632844
1950                      2773.723079807815
1955                      3093.6999027872207
1960                      3477.4454830691443
1965                      3951.3747676533
1970                      4558.3317498617225
1975                      5372.808034053064
1980                      6536.910743746547
1985                      8359.792038993604
1990                      11665.590085625034
1995                      19631.817066911517
2000                      67130.37359354264
