% Model:              adattamento a studio.mph
% Version:            COMSOL 5.6.0.341
% Date:               Jun 5 2021, 14:43
% Dimension:          1
% Nodes:              381
% Expressions:        1
% Description:        Grafico a punti
% X                       Height
100                       11443.43079788585
105                       11701.255448611877
110                       11996.569217327387
115                       12337.246268968962
120                       12733.667583057422
125                       13199.800571638008
130                       13754.890743709062
135                       14426.21242501141
140                       15253.742146793322
145                       16298.52930841949
150                       17658.694958313466
155                       19502.620878245634
160                       22145.57741975871
165                       26254.616367425075
170                       33529.051651629
175                       49955.7892080751
180                       122290.99934917004
185                       151444.81808370978
190                       39634.296806790626
195                       20041.123985621278
200                       11880.602242181441
205                       7391.086028196228
210                       4538.295333478816
215                       2555.3791248402867
220                       1089.0513558764421
225                       68.49476740156817
230                       962.9631817435805
235                       1718.4156734019273
240                       2360.1881850246355
245                       2917.5125462331944
250                       3411.276442671501
255                       3856.8618853010216
260                       4265.966745365247
265                       4647.78168237955
270                       5009.777805118962
275                       5358.2558638470255
280                       5698.748071765059
285                       6036.330247506095
290                       6375.88337695613
295                       6722.333887622588
300                       7080.897943361217
305                       7457.355747571704
310                       7858.387377273467
315                       8292.013673415766
320                       8768.207917890128
325                       9299.784019018645
330                       9903.740041330038
335                       10603.374218270968
340                       11431.764574471665
345                       12437.777978606684
350                       13697.066615576343
355                       15333.674221839143
360                       17566.5022509139
365                       20821.94457682414
370                       26056.83884065821
375                       35956.740983187534
380                       62052.701751155386
385                       325509.25996327767
390                       83626.76989135807
395                       34340.5518411409
400                       20293.035365804924
405                       13618.543699065098
410                       9700.38864999225
415                       7110.0398263435245
420                       5260.224768884534
425                       3865.0713381854416
430                       2768.698522842407
435                       1878.8945082040022
440                       1137.882490466636
445                       509.6344031699095
450                       107.62415555926903
455                       545.4205521759262
460                       979.3288965796115
465                       1376.9441845135993
470                       1744.891105983117
475                       2089.507425523632
480                       2416.208858068074
485                       2729.660184209389
490                       3033.98923256178
495                       3332.9759824822563
500                       3630.2182455686993
505                       3929.2850418747516
510                       4233.87024326177
515                       4547.960234663778
520                       4876.032138239027
525                       5223.304700467445
530                       5596.0739176193965
535                       6002.182902351455
540                       6451.706180342248
545                       6957.984061067971
550                       7539.246763423703
555                       8221.272487630675
560                       9041.94895692497
565                       10059.554757643133
570                       11368.867119294888
575                       13135.350879068841
580                       15676.570809966131
585                       19689.69432380446
590                       27061.3797681945
595                       45292.06241533767
600                       168432.6576735989
605                       83724.62185020416
610                       31488.500828611177
615                       18460.626101216658
620                       12514.061732783757
625                       9089.500854648835
630                       6849.742595040327
635                       5260.68719094694
640                       4067.0823032498147
645                       3131.5203479513743
650                       2373.4640808696745
655                       1742.6446107698573
660                       1206.3088325600638
665                       743.202213507038
670                       345.5667742471151
675                       150.63248128165992
680                       418.11082536707465
685                       719.7761057109559
690                       1007.1774285444747
695                       1280.3406529028616
700                       1542.0392127592365
705                       1795.2302056153537
710                       2042.740677848865
715                       2287.2731413595975
720                       2531.4781774458306
725                       2778.0469654100425
730                       3029.816967583562
735                       3289.895491843794
740                       3561.8116091878164
745                       3849.7127377053093
750                       4158.630804255296
755                       4494.8571199555645
760                       4866.489729046881
765                       5284.261192402947
770                       5762.8373757744275
775                       6322.939687720533
780                       6994.978753490555
785                       7825.631561225726
790                       8890.585520634171
795                       10321.453203625064
800                       12369.432447193441
805                       15581.490222619463
810                       21418.00960364907
815                       35527.246300167346
820                       120614.06443031914
825                       75109.79039142521
830                       27064.408809692202
835                       15811.264023198166
840                       10761.383928632873
845                       7875.572944423348
850                       5995.811580169687
855                       4665.06363737335
860                       3666.552651845795
865                       2884.2078797129607
870                       2250.28586354468
875                       1722.6654107673637
880                       1273.9980898857068
885                       886.4025565417747
890                       550.1477882992885
895                       274.72123550277865
900                       198.16543716231737
905                       388.2455768230494
910                       617.1476198717727
915                       842.9526088448364
920                       1061.9948679911513
925                       1275.1690997450478
930                       1484.2440422372988
935                       1691.1948704014774
940                       1898.0728980620934
945                       2107.013582079915
950                       2320.293960358412
955                       2540.418637367498
960                       2770.233876966727
965                       3013.078955061394
970                       3272.992276405697
975                       3555.0011135791683
980                       3865.542322067705
985                       4213.093811654215
990                       4609.15623872879
995                       5069.839641696878
1000                      5618.5447638498645
1005                      6290.739898022737
1010                      7143.035577707413
1015                      8271.870470870503
1020                      9856.237466496017
1025                      12270.391368589517
1030                      16450.486923063272
1035                      25583.850777418644
1040                      62071.93663504516
1045                      117206.16077349188
1050                      28436.90746640364
1055                      15530.065546502005
1060                      10321.997175591001
1065                      7488.33843986439
1070                      5694.452641288218
1075                      4447.977264489779
1080                      3524.9077557149394
1085                      2808.6863930899617
1090                      2232.7032176470957
1095                      1756.2070359273168
1100                      1353.0506631448086
1105                      1006.1357847207886
1110                      705.0755781345234
1115                      447.8167205412001
1120                      258.3999907953097
1125                      241.83246221223004
1130                      387.9547540094162
1135                      570.9853457184549
1140                      757.7338804608456
1145                      942.6083706971987
1150                      1125.261704678494
1155                      1306.6930944891997
1160                      1488.3598429662331
1165                      1671.947171041944
1170                      1859.3298353131577
1175                      2052.6081718909627
1180                      2254.1870516555664
1185                      2466.894025687185
1190                      2694.146432176359
1195                      2940.1889299368877
1200                      3210.4387961376015
1205                      3512.0026023863425
1210                      3854.4752459309907
1215                      4251.222658299266
1220                      4721.531672986187
1225                      5294.401693970026
1230                      6015.658495814267
1235                      6962.371498496538
1240                      8275.134019576446
1245                      10240.754363904716
1250                      13549.529574387805
1255                      20390.59163425562
1260                      43352.59006365739
1265                      222087.33334857976
1270                      29396.143761506155
1275                      15137.326948918248
1280                      9873.801295912563
1285                      7116.237949406156
1290                      5407.149848353394
1295                      4235.658373019051
1300                      3376.326768645639
1305                      2714.245151621
1310                      2184.725707184092
1315                      1748.650422519484
1320                      1381.1453697092447
1325                      1066.007971266481
1330                      793.110151818199
1335                      558.2707296313556
1340                      368.3402510913069
1345                      261.5878123881884
1350                      296.3794512479161
1355                      423.1031834953098
1360                      576.3369323809503
1365                      735.7249558418818
1370                      896.3223019120392
1375                      1057.3526350371005
1380                      1219.3998482550503
1385                      1383.6133691482005
1390                      1551.4680794316453
1395                      1724.7127510775463
1400                      1905.4013797708863
1405                      2095.977205912822
1410                      2299.407248041612
1415                      2519.381039159394
1420                      2760.60294896257
1425                      3029.2303801608377
1430                      3333.5497648135643
1435                      3685.056677767248
1440                      4100.254779729922
1445                      4603.803627242894
1450                      5234.366642991047
1455                      6056.315620609866
1460                      7185.509573639157
1465                      8853.84714055873
1470                      11603.401274004886
1475                      17066.209171029077
1480                      33475.31883023144
1485                      2431648.638187544
1490                      30782.571793304207
1495                      14912.100295173335
1500                      9550.26538107974
1505                      6837.541454215596
1510                      5187.942618460913
1515                      4070.808612042808
1520                      3258.2171737865056
1525                      2636.0603705460862
1530                      2140.931528382376
1535                      1734.8695252344032
1540                      1393.9265704190009
1545                      1102.5769933197132
1550                      851.0092578816667
1555                      634.3807702394278
1560                      454.7258969028667
1565                      328.6035664224739
1570                      293.60147873190436
1575                      357.745516135273
1580                      473.69288215778613
1585                      608.1317761441999
1590                      749.2223827335243
1595                      893.391010088508
1600                      1039.9507722267465
1605                      1189.3726225328364
1610                      1342.7045338587848
1615                      1501.380271221501
1620                      1667.1847642762589
1625                      1842.3010141265027
1630                      2029.4184124890078
1635                      2231.907515562542
1640                      2454.0849804987142
1645                      2701.615341501802
1650                      2982.1338024336205
1655                      3306.2434962986413
1660                      3689.1783268522463
1665                      4153.714876040932
1670                      4735.585886329715
1675                      5494.323526987739
1680                      6537.16447701803
1685                      8078.988779384548
1690                      10622.929277614841
1695                      15688.214386570522
1700                      30993.08267436065
1705                      1468126.3343809438
1710                      28175.991259535593
1715                      13751.049130560667
1720                      8849.896030070395
1725                      6364.896505784156
1730                      4852.0614068853965
1735                      3826.8776437723977
1740                      3080.9186707410895
1745                      2509.7431702228473
1750                      2055.2942022728157
1755                      1682.821675935382
1760                      1370.4269620233017
1765                      1103.9386996975752
1770                      874.3883377562063
1775                      677.1145693807385
1780                      512.5542595393364
1785                      389.62013707878026
1790                      329.27628267746667
1795                      347.4884624723373
1800                      425.28263908631646
1805                      532.6832694027564
1810                      653.1808899802713
1815                      780.177740710365
1820                      911.4239618796237
1825                      1046.536652030317
1830                      1186.0403684903458
1835                      1331.0025068247614
1840                      1482.9141912824023
1845                      1643.6907213643237
1850                      1815.7493567222211
1855                      2002.1588076988073
1860                      2206.877680341794
1865                      2435.122951017257
1870                      2693.9456434288604
1875                      2993.1560970524724
1880                      3346.870161230785
1885                      3776.2214567393053
1890                      4314.412280965737
1895                      5016.850681998929
1900                      5983.555116423448
1905                      7415.524951573009
1910                      9785.466253776713
1915                      14531.776454768022
1920                      29100.376474807028
1925                      622641.1166207134
1930                      25372.079187921045
1935                      12542.486112539795
1940                      8119.038845033552
1945                      5863.630641442844
1950                      4486.460081717797
1955                      3551.5379444170894
1960                      2870.5297872974884
1965                      2348.822979688909
1970                      1933.7530262553403
1975                      1593.7961855947342
1980                      1309.1270520708745
1985                      1066.9908164433234
1990                      859.4213357665534
1995                      682.3805797470595
2000                      536.1499981678134
