% Model:              adattamento a studio.mph
% Version:            COMSOL 5.6.0.341
% Date:               Jun 5 2021, 23:15
% Dimension:          1
% Nodes:              381
% Expressions:        1
% Description:        Grafico a punti
% X                       Height
100                       11767.372037213634
105                       12072.445738220975
110                       12426.91477940226
115                       12842.770954792348
120                       13336.427368606532
125                       13930.958925631974
130                       14659.861485466428
135                       15573.683572554624
140                       16752.465291884044
145                       18330.93087449736
150                       20554.833753029157
155                       23925.05752609462
160                       29644.780746096003
165                       41513.981831260855
170                       81107.1539295383
175                       358189.7337774617
180                       46392.05921262496
185                       21156.757104086915
190                       11892.730932194097
195                       7064.622650268173
200                       4087.3727557987627
205                       2056.2145707447976
210                       573.0211292125886
215                       571.690946230569
220                       1482.9726827160414
225                       2236.2676324740623
230                       2875.8510031665996
235                       3432.13220315309
240                       3926.63267664192
245                       4375.162396019978
250                       4789.773040506673
255                       5180.007443186131
260                       5553.736032727968
265                       5917.746673764789
270                       6278.188172593347
275                       6640.932316317082
280                       7011.901082467332
285                       7397.39816292198
290                       7804.484683435174
295                       8241.44818137254
300                       8718.434562679719
305                       9248.352234616748
310                       9848.231457403856
315                       10541.363253927842
320                       11360.824383477964
325                       12355.591228695208
330                       13601.797677362565
335                       15225.037587325443
340                       17448.853408248586
345                       20714.0392678708
350                       26028.243098886258
355                       36310.22906478876
360                       64996.737752048495
365                       550579.0188318338
370                       69491.2111495485
375                       30291.151226798713
380                       18065.339070193157
385                       12072.011954191552
390                       8493.704139424599
395                       6101.162670959038
400                       4377.752880564637
405                       3068.363817679589
410                       2032.5063865922712
415                       1186.6753627138037
420                       480.442953292491
425                       165.60524023479107
430                       680.4141052897479
435                       1155.6431109998352
440                       1587.9866367933673
445                       1986.6185018677802
450                       2359.4119634255417
455                       2712.943725015658
460                       3052.8441204089013
465                       3384.1108861800385
470                       3711.371626081671
475                       4039.1141725375287
480                       4371.906646163142
485                       4714.629487391309
490                       5072.7448757243865
495                       5452.6367140028115
500                       5862.069429934636
505                       6310.84140750037
510                       6811.7592822541565
515                       7382.1541323390275
520                       8046.346539692256
525                       8839.85249931105
530                       9816.974023805587
535                       11065.463117793232
540                       12737.382976858093
545                       15121.770575001907
550                       18844.43792303964
555                       25561.240883856517
560                       41559.82250538858
565                       131251.14098503458
570                       92709.2376705207
575                       31917.193618742265
580                       18220.517525467527
585                       12140.98231203891
590                       8684.428175313207
595                       6439.029596040511
600                       4851.682688364097
605                       3661.236945916943
610                       2728.281680772694
615                       1971.63445830981
620                       1341.0076526986948
625                       804.4913066200913
630                       347.62876956579953
635                       164.32902624311834
640                       494.64606570045396
645                       834.6536143381438
650                       1154.9051515842968
655                       1458.0429022912733
660                       1748.1306635937542
665                       2029.0769656243635
670                       2304.532879594016
675                       2577.9914733184146
680                       2852.926728250377
685                       3132.948888471072
690                       3421.9819396399184
695                       3724.4796139811788
700                       4045.7058664766164
705                       4392.120054217624
710                       4771.931645437186
715                       5195.933706204824
720                       5678.80791380955
725                       6241.25829060489
730                       6913.673430211342
735                       7742.780921659467
740                       8804.60943034644
745                       10232.057526144985
750                       12280.73041540374
755                       15513.687123780577
760                       21463.550920369482
765                       36298.25571614738
770                       142160.85512727147
775                       64311.8140375525
780                       24697.12228962527
785                       14569.689458932768
790                       9905.715810451129
795                       7203.493789334279
800                       5426.708156344288
805                       4159.427803527014
810                       3202.26341338472
815                       2447.671176737757
820                       1832.5920256944185
825                       1317.835560920205
830                       878.5438909801023
835                       501.69228041199824
840                       211.0023479535241
845                       257.6669672271705
850                       512.9078123844905
855                       774.3237162263388
860                       1026.6183682310034
865                       1270.2479658143432
870                       1507.5732152720982
875                       1741.2661735539991
880                       1974.0601982414585
885                       2208.7636276585094
890                       2448.351380456706
895                       2696.097813446646
900                       2955.7518440755075
905                       3231.7717771588655
910                       3529.6523839390825
915                       3856.3990624874955
920                       4221.242673218021
925                       4636.7608958364435
930                       5120.714036954838
935                       5699.199325312887
940                       6412.388720339708
945                       7325.719769606776
950                       8553.735335371808
955                       10317.13706999765
960                       13103.38176703122
965                       18245.123846952694
970                       31155.45024607827
975                       127641.71372751809
980                       53910.82723255957
985                       21067.81858873591
990                       12539.548208779755
995                       8591.287683884424
1000                      6296.712820747861
1005                      4784.528392576651
1010                      3703.897824884841
1015                      2886.3067476855235
1020                      2240.7684607677356
1025                      1713.9371521384217
1030                      1272.7389143953067
1035                      896.3449290935653
1040                      573.6558849412439
1045                      312.1367117299649
1050                      211.70829108364893
1055                      360.3781653497337
1060                      570.6998291574579
1065                      784.3946748735606
1070                      994.3105579057523
1075                      1200.5418399475484
1080                      1404.7013962101162
1085                      1608.8521730849377
1090                      1815.2825314501986
1095                      2026.5034923475203
1100                      2245.3311509235195
1105                      2475.024775890354
1110                      2719.485431120438
1115                      2983.539595614902
1120                      3273.354147285928
1125                      3597.064011596993
1130                      3965.757460825056
1135                      4395.088473147267
1140                      4908.044101831827
1145                      5539.970566908944
1150                      6348.3557418226
1155                      7433.612049730944
1160                      8988.631153762393
1165                      11437.533276905619
1170                      15931.193712597054
1175                      27072.39683094079
1180                      104584.94995811903
1185                      50305.43183363835
1190                      19275.047978285398
1195                      11464.769532252694
1200                      7881.549148286253
1205                      5808.288510818997
1210                      4445.515098556149
1215                      3473.345547514519
1220                      2738.763658799545
1225                      2159.4058408773108
1230                      1687.1134742431154
1235                      1292.10383527563
1240                      955.591617777809
1245                      666.8899090292304
1250                      425.77914770934336
1255                      263.3482264536645
1260                      271.93824248089015
1265                      414.85846347695156
1270                      590.7721819267791
1275                      771.8046197726304
1280                      952.6638119565846
1285                      1133.0287224225428
1290                      1314.0007544889802
1295                      1497.237771251462
1300                      1684.7337777946925
1305                      1878.8038839844094
1310                      2082.1614582261877
1315                      2298.0621227794627
1320                      2530.5226731298267
1325                      2784.6458432303198
1330                      3067.1101542146457
1335                      3386.9314744865665
1340                      3756.6922856948286
1345                      4194.615635959156
1350                      4728.253104439442
1355                      5401.475976094489
1360                      6288.833346441004
1365                      7528.271073191142
1370                      9407.034129663314
1375                      12639.098134097272
1380                      19626.970991100075
1385                      46678.34593888777
1390                      100895.78475667756
1395                      22959.89104628924
1400                      12471.588789914884
1405                      8289.643830097226
1410                      6023.647587668453
1415                      4590.878874245779
1420                      3595.0193402661603
1425                      2856.6311138517503
1430                      2282.6907207759205
1435                      1820.2471799817695
1440                      1437.1236852525017
1445                      1113.019911312734
1450                      835.362417737792
1455                      598.2393766515996
1460                      405.95473988580966
1465                      288.1201245272838
1470                      298.2505483853482
1475                      408.70082870035196
1480                      554.3131307015883
1485                      709.7495508864791
1490                      868.228501075483
1495                      1028.3887227312584
1500                      1190.6716081699508
1505                      1356.2790814064022
1510                      1526.858928446573
1515                      1704.4398547184783
1520                      1891.4793219332178
1525                      2090.9876231006356
1530                      2306.7307857878595
1535                      2543.5401076161647
1540                      2807.785372033323
1545                      3108.116493441917
1550                      3456.667941398738
1555                      3871.1023842001637
1560                      4378.267263753945
1565                      5021.177355457292
1570                      5873.487483449259
1575                      7072.875211041731
1580                      8910.191467082197
1585                      12125.022342997163
1590                      19315.586762276063
1595                      50651.95329595849
1600                      71145.06341391962
1605                      19943.09618167654
1610                      11215.290062564034
1615                      7579.802235628013
1620                      5571.389293877979
1625                      4287.513604573547
1630                      3388.9474128305374
1635                      2719.6282559352335
1640                      2197.7859297197065
1645                      1776.532193930775
1650                      1427.2311658717178
1655                      1131.744806216985
1660                      878.7203213177738
1665                      662.2729073078885
1670                      483.22842848510584
1675                      354.95597957977833
1680                      308.8527168277149
1685                      357.58255334777004
1690                      462.99177919210825
1695                      591.0361231057145
1700                      727.9620225688657
1705                      869.2802936165813
1710                      1013.9341224603259
1715                      1162.274244650761
1720                      1315.3600715009848
1725                      1474.7270695954303
1730                      1642.3452566679969
1735                      1820.6797798917755
1740                      2012.8315562457158
1745                      2222.7684506318647
1750                      2455.684099102916
1755                      2718.5574439771353
1760                      3021.04868410432
1765                      3376.989593697375
1770                      3806.9836612114063
1775                      4343.216783282596
1780                      5039.034167592198
1785                      5989.884500625702
1790                      7385.257982719453
1795                      9662.652324204772
1800                      14111.225546140859
1805                      26910.66324013938
1810                      499265.9693992234
1815                      28400.61439419975
1820                      13349.087301224705
1825                      8485.883643223377
1830                      6065.146511471194
1835                      4605.3857702144405
1840                      3621.7479662151914
1845                      2908.612659180705
1850                      2363.9178261195134
1855                      1931.3331329627033
1860                      1577.3581143908177
1865                      1281.0478548168246
1870                      1029.0446524862164
1875                      813.2205571483522
1880                      630.0280713848749
1885                      481.6686607486672
1890                      379.35214578517997
1895                      342.53361978692556
1900                      376.7565651569159
1905                      459.3363414584458
1910                      566.0008408675982
1915                      684.1489644201472
1920                      808.6598260489372
1925                      937.8207427964478
1930                      1071.48633629194
1935                      1210.3366617280567
1940                      1355.5936089218376
1945                      1508.941943845183
1950                      1672.56132201644
1955                      1849.2411946701782
1960                      2042.5837076353976
1965                      2257.325842840454
1970                      2499.8455545746324
1975                      2778.9735044041818
1980                      3107.3417499201078
1985                      3503.730457556027
1990                      3997.3928905184257
1995                      4636.6211843510955
2000                      5507.351799713398
