% Model:              adattamento a studio.mph
% Version:            COMSOL 5.6.0.341
% Date:               Jun 5 2021, 15:46
% Dimension:          1
% Nodes:              381
% Expressions:        1
% Description:        Grafico a punti
% X                       Height
100                       11774.928662406754
105                       12081.146935857674
110                       12437.066447569185
115                       12854.792088594304
120                       13350.906518710872
125                       13948.747620119386
130                       14682.23597489307
135                       15602.640582841717
140                       16791.30043357807
145                       18385.47027419623
150                       20636.365610000565
155                       24058.464007052542
160                       29896.819608435857
165                       42136.873182089555
170                       84222.84690109504
175                       301045.85212823807
180                       44666.46599471211
185                       20629.843502240765
190                       11633.028062171175
195                       6906.271341404565
200                       3978.3077578043667
205                       1974.8654466772707
210                       508.98817120637915
215                       624.5123859931867
220                       1528.1493725251617
225                       2275.91593584091
230                       2911.476401109457
235                       3464.807127927618
240                       3957.1532062503134
245                       4404.145280448278
250                       4817.717827063991
255                       5207.338347573769
260                       5580.831969126466
265                       5944.964533450968
270                       6305.882697997136
275                       6669.475066554676
280                       7041.700706645139
285                       7428.924376728363
290                       7838.299020748769
295                       8278.245966085284
300                       8759.10506710709
305                       9294.068584663653
310                       9900.590422366146
315                       10602.611739338294
320                       11434.243614451527
325                       12446.184197449322
330                       13717.601352685582
335                       15379.838158100289
340                       17668.42326028448
345                       21052.64208095231
350                       26622.24687720246
355                       37620.48667790674
360                       69942.76687224787
365                       713745.4209916862
370                       63019.33647552658
375                       28740.869670265667
380                       17376.09380257953
385                       11678.691072284048
390                       8236.265730765725
395                       5917.219594044732
400                       4237.980645148683
405                       2957.155943497839
410                       1940.7940446772684
415                       1108.888340851891
420                       413.84909905593565
425                       218.82613152657999
430                       734.8101737877482
435                       1206.0787647663276
440                       1635.2880703499695
445                       2031.5814188724257
450                       2402.7176049987356
455                       2755.1855823803435
460                       3094.558889515456
465                       3425.8058515341068
470                       3753.549469924269
475                       4082.2973255572665
480                       4416.663563311577
485                       4761.605664187567
490                       5122.702323297373
495                       5506.507294402879
500                       5921.030463651393
505                       6376.4273672822965
510                       6886.033335310905
515                       7467.982345870746
520                       8147.855912263071
525                       8963.235961946022
530                       9971.994110125577
535                       11268.48053782767
540                       13018.0743395759
545                       15540.077979771744
550                       19541.89573132469
555                       26967.33430774986
560                       45793.95795902966
565                       193003.3953283611
570                       73836.38158837949
575                       28990.573454199573
580                       17074.183552258404
585                       11527.187217873223
590                       8298.555101851822
595                       6171.225436575721
600                       4652.790596198068
605                       3505.9819057300283
610                       2602.340073940197
615                       1866.2951361502862
620                       1250.7329857687926
625                       725.9403834273731
630                       282.79014782742786
635                       209.6138766878351
640                       552.9308393710071
645                       890.5852269312027
650                       1208.4665223472675
655                       1509.8249522146145
660                       1798.7560578527127
665                       2079.143776513214
670                       2354.622688437287
675                       2628.690156660439
680                       2904.8497103895897
685                       3186.7707322663264
690                       3478.4726486255663
695                       3784.5517591323546
700                       4110.478971725073
705                       4463.012519370531
710                       4850.7972802392105
715                       5285.272463288204
720                       5782.1044884687935
725                       6363.551058574893
730                       7062.561441283807
735                       7930.321366210506
740                       9051.18225541965
745                       10575.065371931014
750                       12797.006231645164
755                       16389.470960633083
760                       23290.865397301328
765                       42333.32187899372
770                       353785.2426959536
775                       49319.724202782316
780                       21830.42531884259
785                       13383.955484446145
790                       9255.35680839578
795                       6789.319730225695
800                       5137.079629283986
805                       3943.345406877316
810                       3033.144144945035
815                       2310.311373430553
820                       1717.696786330079
825                       1219.4962475584052
830                       793.1784459990361
835                       429.0584506613492
840                       178.79587433982744
845                       309.8264007697353
850                       571.4232048243102
855                       831.6583573861554
860                       1082.4099807048397
865                       1324.911010264791
870                       1561.6602659130024
875                       1795.3632540209421
880                       2028.777066133037
885                       2264.749477383252
890                       2506.321771605538
895                       2756.8712105186296
900                       3020.2987021973336
905                       3301.282454111889
910                       3605.6345816371913
915                       3940.8228889207817
920                       4316.76485571947
925                       4747.085495712647
930                       5251.199402984436
935                       5857.934247536323
940                       6612.224763974866
945                       7588.422871997183
950                       8919.369776910686
955                       10868.375886149914
960                       14042.110953249068
965                       20222.06683177856
970                       37878.784474599066
975                       554486.4608625803
980                       39593.63200380855
985                       18210.147233183652
990                       11343.631549418596
995                       7932.306442770924
1000                      5876.267068553575
1005                      4490.37852978082
1010                      3484.5284594201607
1015                      2714.790748728379
1020                      2101.6866709316155
1025                      1597.872110963054
1030                      1173.7360195577035
1035                      810.8309100502597
1040                      500.93000166503543
1045                      262.81687554441686
1050                      233.62346362711358
1055                      412.50750179753464
1060                      625.845513900301
1065                      839.0833548085031
1070                      1048.2414949236797
1075                      1254.028365375908
1080                      1458.22642552648
1085                      1662.9705836371368
1090                      1870.6073720607642
1095                      2083.720745864674
1100                      2305.230042259717
1105                      2538.5426499572027
1110                      2787.7717749012722
1115                      3058.048826428578
1120                      3355.9841521439807
1125                      3690.3703493035378
1130                      4073.297739322724
1135                      4522.001166924764
1140                      5062.073391379834
1145                      5733.398561102159
1150                      6601.941716440146
1155                      7785.474407725812
1160                      9517.182981360018
1165                      12333.425379543305
1170                      17804.63416634344
1175                      33348.50520606083
1180                      453776.1688800954
1185                      35862.698520983125
1190                      16485.716030251533
1195                      10309.410692916385
1200                      7248.758505744114
1205                      5406.39572189923
1210                      4165.451519254638
1215                      3265.248196852301
1220                      2576.64975025164
1225                      2028.438843649798
1230                      1578.2574464104064
1235                      1199.6540245561337
1240                      876.0579932958843
1245                      598.9346778028095
1250                      372.76055740552107
1255                      245.5399469436566
1260                      302.20872491415105
1265                      459.87961398617836
1270                      638.4627284149217
1275                      819.7763476999892
1280                      1000.5647725196409
1285                      1181.04891574796
1290                      1362.522077639996
1295                      1546.740900739968
1300                      1735.7805461277246
1305                      1932.0495437694926
1310                      2138.38505636128
1315                      2358.2145111957907
1320                      2595.7978098963367
1325                      2856.5873048861918
1330                      3147.774427521976
1335                      3479.1471081809545
1340                      3864.4884375316565
1345                      4323.965972751474
1350                      4888.444648569511
1355                      5607.815698934244
1360                      6568.512510430668
1365                      7934.706805734474
1370                      10061.41007859928
1375                      13885.990757020576
1380                      22953.973844433298
1385                      73225.93865616538
1390                      54997.264184402055
1395                      19053.05069124034
1400                      11116.061080779538
1405                      7604.314118565418
1410                      5608.223661765579
1415                      4310.297318210252
1420                      3391.2684405852083
1425                      2700.7328446920196
1430                      2158.592893749838
1435                      1718.3805882084423
1440                      1351.5017010606848
1445                      1039.857266079458
1450                      772.518849041077
1455                      545.5049989121023
1460                      367.38321672227625
1465                      277.30029735502785
1470                      319.4596425847312
1475                      443.2041125306473
1480                      592.5790148363428
1485                      749.1238253637109
1490                      908.0684324628182
1495                      1068.6830835835472
1500                      1231.6534171429014
1505                      1398.3067141415136
1510                      1570.3835287778413
1515                      1750.007734761494
1520                      1939.754371222542
1525                      2142.791387750938
1530                      2363.1044232895983
1535                      2605.838538657532
1540                      2877.822924851254
1545                      3188.3994241745936
1550                      3550.780874134
1555                      3984.38256154443
1560                      4519.052533789759
1565                      5203.291622125849
1570                      6121.676116849558
1575                      7436.2659943570125
1580                      9502.002348169526
1585                      13275.761620311096
1590                      22533.007792655077
1595                      83254.48576186382
1600                      44967.03094436771
1605                      16974.313868063833
1610                      10132.838467522835
1615                      7021.245318129426
1620                      5229.127289735169
1625                      4054.863038782112
1630                      3219.340330313339
1635                      2589.5560989944092
1640                      2094.1316168632684
1645                      1691.4372112223193
1650                      1355.7613219385714
1655                      1070.7616047977945
1660                      826.3807831322505
1665                      618.0359889075634
1670                      448.67377386526823
1675                      335.82493082381563
1680                      312.2609028741872
1685                      378.01088550336726
1690                      490.67335741246046
1695                      621.4714002998753
1700                      759.6127595244193
1705                      901.7017611500455
1710                      1047.1075898557094
1715                      1196.3776519219928
1720                      1350.6881315931314
1725                      1511.6688027030962
1730                      1681.388810610702
1735                      1862.4353807910427
1740                      2058.072278781723
1745                      2272.494241062715
1750                      2511.220945405032
1755                      2781.713938282352
1760                      3094.37159120742
1765                      3464.1994787299514
1770                      3913.758030504963
1775                      4478.693542321727
1780                      5218.947185763956
1785                      6243.848607919298
1790                      7776.383628737994
1795                      10353.082795580483
1800                      15674.570545696586
1805                      33507.622008082355
1810                      175041.41801339033
1815                      23084.777577468638
1820                      11961.466332360715
1825                      7856.817182928482
1830                      5705.678165005204
1835                      4371.631667422577
1840                      3456.553636331102
1845                      2784.8518462756138
1850                      2267.097134573657
1855                      1853.0346356466541
1860                      1512.3977721580795
1865                      1226.124386389716
1870                      982.0766481658003
1875                      773.074890459135
1880                      596.5866011801025
1885                      456.3427947377973
1890                      365.7494052656283
1895                      344.0215055137741
1900                      390.49312633765004
1905                      479.59463887250695
1910                      589.313127923444
1915                      709.0282051600931
1920                      834.5561692477763
1925                      964.6034318117721
1930                      1099.231621374969
1935                      1239.243926271363
1940                      1385.9563359333665
1945                      1541.1457879811073
1950                      1707.0996844371543
1955                      1886.7468965198327
1960                      2083.8806020066777
1965                      2303.5097613251432
1970                      2552.4125471544776
1975                      2840.029092967682
1980                      3179.956749490488
1985                      3592.5782195744578
1990                      4109.96642173368
1995                      4785.75448225564
2000                      5717.024939962419
