% Model:              adattamento a studio.mph
% Version:            COMSOL 5.6.0.341
% Date:               Jun 5 2021, 14:43
% Dimension:          1
% Nodes:              381
% Expressions:        1
% Description:        Grafico a punti
% X                       Height
100                       11715.487543349665
105                       12015.008011808715
110                       12362.588473240588
115                       12769.760077007031
120                       13252.255029035638
125                       13832.107474980148
130                       14541.157699580735
135                       15427.190222082592
140                       16565.346271448805
145                       18080.981966728243
150                       20200.051489795198
155                       23375.388280496136
160                       28666.95497077004
165                       39271.97325128489
170                       71368.81785782646
175                       635711.3187409651
180                       53350.690534456815
185                       23059.375201490282
190                       12774.029401179985
195                       7577.210062044444
200                       4426.7536326490435
205                       2300.8558985626105
210                       760.129489914313
215                       421.72852331776784
220                       1357.4302099654653
225                       2128.23886587638
230                       2780.4194433543507
235                       3345.8693152515534
240                       3847.0537274012904
245                       4300.394698972943
250                       4718.347830201945
255                       5110.723440089258
260                       5485.565437194386
265                       5849.766414243945
270                       6209.525698449384
275                       6570.7186500727175
280                       6939.225488678034
285                       7321.259218198612
290                       7723.731896415507
295                       8154.706423263298
300                       8623.999810634861
305                       9144.040153070746
310                       9731.147330586984
315                       10407.53670827244
320                       11204.601621603699
325                       12168.568426484331
330                       13370.826259833666
335                       14928.188001112936
340                       17046.376599876447
345                       20125.164350682324
350                       25058.713999969244
355                       34343.210628081964
360                       58571.89397977453
365                       285031.41345823935
370                       80741.49153939144
375                       32490.725370758893
380                       18929.7015535836
385                       12512.777373473815
390                       8750.764999560006
395                       6263.3977109947
400                       4485.2192228489075
405                       3141.5794486092173
410                       2082.967566398809
415                       1221.244944433111
420                       503.2242786629843
425                       153.71636842376935
430                       672.7825520780449
435                       1153.4127936546438
440                       1590.3278757008488
445                       1992.9483529276806
450                       2369.3597123636437
455                       2726.310438528091
460                       3069.577766042862
465                       3404.2950207778526
470                       3735.225793259412
475                       4067.005668587964
480                       4404.374954795466
485                       4752.426620918734
490                       5116.897532537522
495                       5504.540291383111
500                       5923.630796907358
505                       6384.69937994113
510                       6901.633860030427
515                       7493.418199627753
520                       8187.000479814491
525                       9022.270070246464
530                       10061.226526450138
535                       11406.152107954325
540                       13239.143932585783
545                       15919.45667409572
550                       20269.09246590312
555                       28673.22464418995
560                       52161.525800639996
565                       492539.02385786665
570                       57033.14590609656
575                       25328.63906253668
580                       15412.225223752837
585                       10537.516753571155
590                       7618.4576047059045
595                       5660.372327060909
600                       4244.951118526644
605                       3165.5431999753546
610                       2308.3018597887362
615                       1605.4422349860101
620                       1014.5805624705453
625                       510.79574342518424
630                       138.23513092419176
635                       384.65236909253525
640                       741.2145153711177
645                       1077.7749584644555
650                       1395.1452999638586
655                       1697.6806069975025
660                       1989.7076757525665
665                       2275.259700119904
670                       2558.17052891054
675                       2842.231227887338
680                       3131.367549441249
685                       3429.8426490354773
690                       3742.5041785888898
695                       4075.106912989616
700                       4434.759886088233
705                       4830.57811710933
710                       5274.676237640889
715                       5783.751241321009
720                       6381.723548753198
725                       7104.382051931772
730                       8008.080615151242
735                       9187.327531607001
740                       10814.076734775688
745                       13238.068122818098
750                       17297.57592885178
755                       25631.75383142671
760                       53124.55950458712
765                       294317.6049217149
770                       36261.99064431787
775                       18199.230454756278
780                       11587.215739525893
785                       8131.6454829765635
790                       5990.350182079683
795                       4520.892040357113
800                       3440.5907808001416
805                       2605.601497339068
810                       1935.0478269485577
815                       1380.1801431997849
820                       910.6385375920456
825                       510.13725456756936
830                       204.227031478534
835                       276.02242116153354
840                       549.4186464363876
845                       824.3871383769913
850                       1088.8150706807362
855                       1344.0236735222377
860                       1592.8865339539434
865                       1838.4987359053544
870                       2084.00551528439
875                       2332.661488154893
880                       2587.9640208649166
885                       2853.8357676405826
890                       3134.86743536142
895                       3436.6519885464227
900                       3766.2654194941824
905                       4132.988945593193
910                       4549.441198883962
915                       5033.434310908087
920                       5611.172059689237
925                       6323.091212922576
930                       7235.316370343885
935                       8464.238222467038
940                       10235.914783744322
945                       13055.673726967016
950                       18333.208676108992
955                       32046.193440380142
960                       161560.05340645285
965                       47280.81124246263
970                       19494.17362317835
975                       11735.877763532066
980                       8059.512945094334
985                       5896.234631755329
990                       4458.6952968002815
995                       3424.85454214903
1000                      2638.483030087503
1005                      2014.6677051462884
1010                      1503.4620658132667
1015                      1074.0707540070553
1020                      708.1115981314483
1025                      401.4058779919649
1030                      209.7862631763749
1035                      306.0613615406271
1040                      523.4660532268518
1045                      749.8630698051268
1050                      972.1238926059776
1055                      1189.7825013285965
1060                      1404.5846809151742
1065                      1618.8427785486433
1070                      1835.1145451090126
1075                      2056.19038772834
1080                      2285.1880260950925
1085                      2525.713020702877
1090                      2782.090133573922
1095                      3059.6954177612506
1100                      3365.446437157906
1105                      3708.552633149381
1110                      4101.710900533307
1115                      4563.097517986475
1120                      5119.862179949067
1125                      5814.645778638262
1130                      6718.700465679514
1135                      7961.0120976612025
1140                      9802.021672444254
1145                      12858.958486916072
1150                      19036.264887957317
1155                      38539.45902183189
1160                      394271.1973707118
1165                      30178.76403861728
1170                      14964.097196784662
1175                      9578.478472103494
1180                      6800.632735345534
1185                      5091.37434645718
1190                      3923.525885847441
1195                      3067.5777154279144
1200                      2407.5999332536426
1205                      1878.7955112360896
1210                      1442.3029550276958
1215                      1073.8700752934592
1220                      758.8506908744165
1225                      492.199275449812
1230                      292.1925597892003
1235                      248.73621420421063
1240                      378.79704165699036
1245                      558.5709336934985
1250                      745.7764199763658
1255                      932.7283524398564
1260                      1118.6993344582277
1265                      1304.7625600560382
1270                      1492.6304663989006
1275                      1684.3659684103923
1280                      1882.349668803969
1285                      2089.3526893028506
1290                      2308.6800943770713
1295                      2544.3900128239334
1300                      2801.618198351177
1305                      3087.0664240352708
1310                      3409.760125734168
1315                      3782.268875438934
1320                      4222.761306333365
1325                      4758.651028937583
1330                      5433.489702478307
1335                      6321.076552350229
1340                      7557.4701757325765
1345                      9424.52120565264
1350                      12617.1428794266
1355                      19438.743402146654
1360                      44851.66010507616
1365                      115825.35937550844
1370                      23902.55357738727
1375                      12822.69390423121
1380                      8480.923610040047
1385                      6145.987917044745
1390                      4675.922060958667
1395                      3656.9569301495358
1400                      2902.8925906188156
1405                      2317.5913212376536
1410                      1846.482536814631
1415                      1456.4631802542124
1420                      1126.6543805894494
1425                      844.0798008415084
1430                      602.4989078844286
1435                      405.95120177552366
1440                      284.67597977522104
1445                      295.50975000211935
1450                      409.2774115458736
1455                      557.853664111199
1460                      715.7122321032213
1465                      876.2323755547566
1470                      1038.1539066287605
1475                      1201.9705248575224
1480                      1368.9075344940643
1485                      1540.6162768999313
1490                      1719.111893319034
1495                      1906.8198753325253
1500                      2106.6953555869513
1505                      2322.4169027297908
1510                      2558.680377800559
1515                      2821.645389298256
1520                      3119.630258886621
1525                      3464.2319737345215
1530                      3872.2094522706616
1535                      4368.816888088859
1540                      4994.084591012363
1545                      5815.617582936473
1550                      6957.458177492368
1555                      8674.765040271273
1560                      11589.694943514827
1565                      17722.604585358073
1570                      39460.43155141333
1575                      135496.67566817327
1580                      23682.861310712917
1585                      12533.142987488889
1590                      8277.15660544631
1595                      6014.744155636477
1600                      4600.2389085150135
1605                      3624.6524307576065
1610                      2905.568100445975
1615                      2349.3669113746323
1620                      1903.132475614795
1625                      1534.8394230046197
1630                      1224.234037727767
1635                      958.4080772017601
1640                      729.9071144322502
1645                      537.0578521698214
1650                      388.08522094413655
1655                      309.65935103802445
1660                      329.4012948842029
1665                      421.87864915722963
1670                      545.5818098950972
1675                      681.025066604481
1680                      821.5997864204987
1685                      965.4550726412865
1690                      1112.5795337129136
1695                      1263.8091038443288
1700                      1420.4857325733738
1705                      1584.3641259897897
1710                      1757.635908490335
1715                      1943.0318862290012
1720                      2144.0011657089885
1725                      2364.990333697255
1730                      2611.8731026479736
1735                      2892.623946619537
1740                      3218.409108292157
1745                      3605.4291211432774
1750                      4078.19458563371
1755                      4675.730352859662
1760                      5464.29873873731
1765                      6566.332698902927
1770                      8236.172999280518
1775                      11103.55374528979
1780                      17271.949865135848
1785                      40711.818175056476
1790                      96518.20797933331
1795                      21129.050189041445
1800                      11504.057325696345
1805                      7701.035065667197
1810                      5649.885871670018
1815                      4357.343672871424
1820                      3461.6621179273807
1825                      2799.5688670960308
1830                      2286.610508579009
1835                      1874.7906320964096
1840                      1534.9464560207905
1845                      1248.565575497071
1850                      1003.7468134967314
1855                      793.3030105138142
1860                      614.3816426557951
1865                      469.85153929503275
1870                      371.70270932802134
1875                      339.60317956256927
1880                      377.56017688403847
1885                      462.0015162792608
1890                      569.3365618642781
1895                      687.6032959638094
1900                      811.9747736236882
1905                      940.8491999244928
1910                      1074.1106392441027
1915                      1212.4287754274353
1920                      1356.9902300614292
1925                      1509.4227142323703
1930                      1671.8235666833657
1935                      1846.8656092700014
1940                      2037.9840052896789
1945                      2249.671484772001
1950                      2487.9388487174074
1955                      2761.046819732845
1960                      3080.708620310955
1965                      3464.154576909268
1970                      3937.8750398430266
1975                      4544.881645067462
1980                      5360.062065330236
1985                      6526.554921289105
1990                      8356.642506008218
1995                      11686.697509157018
2000                      19772.166409515103
